     227
 i =        0, time =        0.000, E =       -10.6584823187
 Cd        -8.6216924880        0.4810107428        3.4775887729
 Cd        -5.8723589632       -0.2566559957        7.1151373767
 Cd        -8.4076147924       -2.1531404527        0.3867588804
 Cd        -6.8957642261       -3.2896665849        3.9600318291
 Cd        -3.6930098048       -3.6992689615        7.3819491709
 Cd        -6.4429261463       -6.2347087238        0.4622469067
 Cd        -4.3123952394       -6.8285875372        3.9039095072
 Cd        -6.1141073353        3.8626235599        2.9066844924
 Cd        -3.6048790416        2.8797284733        6.5917986711
 Cd        -6.7531255596        1.1841266196       -0.3182182747
 Cd        -4.0437606329        0.0729837467        3.0511954168
 Cd        -1.7753257667       -0.3121054857        6.8316599018
 Cd        -6.3661028473       -1.4630135273       -3.4383357626
 Cd        -4.3602814436       -3.1214810613       -0.1759283953
 Cd        -2.2424276819       -3.6242998489        3.6335413818
 Cd         0.1757294635       -3.9625201566        7.0364714760
 Cd        -4.2692200317       -5.9860442556       -3.0005266361
 Cd        -2.2482225396       -6.7972628816        0.6786391664
 Cd         0.0669003827       -7.3030327295        3.8545421700
 Cd        -4.0792754193        7.4105475565        2.4175118797
 Cd        -1.6116442377        6.4880648240        6.2478272306
 Cd        -4.3308002626        4.8127262164       -0.6762739309
 Cd        -1.8326132452        3.6694977750        3.1598212265
 Cd         0.4939817277        3.1637060931        6.7202662426
 Cd        -4.5980154021        1.9988297698       -4.0880170010
 Cd        -2.1651194586        1.0165564496       -0.4536921834
 Cd         0.1376109507       -0.0659106884        3.1336818174
 Cd         2.6419074521       -0.6636939286        6.8958319365
 Cd        -4.1515129292       -0.5348426091       -6.9620217917
 Cd        -2.2012490343       -1.8491984656       -3.4894107829
 Cd         0.0359311218       -2.8494155653       -0.0264680683
 Cd         2.4407298775       -3.8224684908        3.5289587884
 Cd         4.5907434619       -4.2169180472        6.5928471603
 Cd        -2.6321953796       -4.5685798778       -6.0773989300
 Cd        -0.3638438279       -6.1221236347       -3.0620735359
 Cd         1.9882729153       -6.8506852632       -0.0376753302
 Cd         4.3604701588       -7.5063202656        3.0981086138
 Cd        -2.4313710890        8.2839908015       -1.2010761441
 Cd         0.1210964618        6.7915494583        2.0748938605
 Cd         2.2602783261        6.3879934074        5.9824457591
 Cd        -2.2743307721        5.5403016700       -4.1096429978
 Cd         0.1552258413        4.6164378819       -0.9814446932
 Cd         2.6173372932        3.7540356816        2.4616712460
 Cd         4.3934694910        2.5024270436        5.6448470259
 Cd        -2.3839877703        3.0961459608       -7.5397423510
 Cd        -0.1308699873        1.7716472388       -4.3458913396
 Cd         2.1522040622        0.8595996928       -0.9600505658
 Cd         4.3027041934       -0.4425155449        2.5248589789
 Cd         6.4943132815       -0.6514444341        6.0110723312
 Cd         0.4032906214       -0.5920449882       -7.0625722312
 Cd         2.1504065746       -1.8410095193       -3.9631978812
 Cd         4.1282053355       -2.9764966895       -0.5499119195
 Cd         6.9189885741       -3.8001688729        2.8840486736
 Cd         1.0693858855       -4.7693596381       -6.7909688629
 Cd         3.6529341800       -5.7620820022       -3.6150795142
 Cd         5.7341856059       -6.5625995016       -0.3323817960
 Cd         2.4532379782        8.1225833618       -1.1556872380
 Cd         4.4025673150        7.2904811152        1.7928276254
 Cd         2.3800547108        5.2453457502       -4.8107637235
 Cd         4.8184663347        4.7191125514       -1.4277792117
 Cd         6.7589411702        3.8390778732        2.0295448973
 Cd         2.6210634084        2.7844913241       -7.7035228004
 Cd         4.8495943395        1.7843685348       -4.5225056138
 Cd         6.7261500983        1.0662237140       -0.9642295531
 Cd         8.8881450478        0.4141445330        2.4369093904
 Cd         4.3615782352       -0.9213178924       -7.7328888960
 Cd         6.7438649008       -1.9767569930       -4.2031112584
 Cd         8.5272445020       -2.6218905711       -0.2551455218
 Se        -9.0557725106        0.2424574140        0.9180313808
 Se        -6.3745872764       -0.6570220647        4.4225742627
 Se        -3.9358548519       -1.3506397678        8.2925868769
 Se        -6.5830028390       -3.7408669090        1.3890860046
 Se        -4.5802302415       -4.2716541219        4.8585926421
 Se        -4.6110671623       -7.7792240778        1.5343213278
 Se        -6.6407812351        3.9866809498        0.4586064126
 Se        -4.0705866514        2.6241591830        3.9150270775
 Se        -1.6315747320        2.0143859544        7.9219454430
 Se        -6.7106235468        0.9827493806       -3.1628202938
 Se        -4.4077684895       -0.2106461950        0.3970531668
 Se        -2.0534879979       -1.1190641497        4.2604482105
 Se         0.4069246601       -1.5676855049        8.0617057342
 Se        -4.4126107232       -3.1307459794       -2.8028288282
 Se        -2.2371864822       -4.0884616040        0.9473336128
 Se         0.1541797359       -4.8148952714        4.4843326207
 Se        -2.4147106009       -7.4199706225       -2.0529393442
 Se        -0.0662571417       -7.8800811154        1.3078284855
 Se        -4.5519687636        7.5920037884       -0.0122560791
 Se        -1.8482840651        6.3647212661        3.5390459072
 Se         0.4006735392        5.8241498358        7.5878867146
 Se        -4.4655945585        4.5529209660       -3.3484418515
 Se        -2.0798083538        3.7153034916        0.3451575142
 Se         0.4973892782        2.6967113851        3.7286137790
 Se         2.7724753484        1.9958260876        7.6298945277
 Se        -4.6126224962        2.0736182894       -6.9031574659
 Se        -2.2770211290        0.8531533747       -3.1284312065
 Se         0.0138865169       -0.1636477002        0.3858468104
 Se         2.3115473387       -1.3198431962        4.0017354986
 Se         4.8624545925       -1.8855864388        7.7371297607
 Se        -2.0700877949       -1.9675257511       -6.4603372509
 Se        -0.0447057629       -3.1582708631       -2.8090856920
 Se         2.2343306950       -4.2299664240        0.7817840723
 Se         4.8342987615       -4.9516929708        4.0974643468
 Se        -0.7556003326       -6.2829108386       -5.8406699955
 Se         1.9243057511       -7.4784768035       -2.6074198353
 Se         4.2543989663       -8.3809591814        0.7363809319
 Se         0.0386925703        7.3677075300       -0.4939635450
 Se         2.3791568525        6.5289221229        3.1400383851
 Se         0.0465974103        4.4270318221       -3.5936563407
 Se         2.5167269427        3.6273521599       -0.0581806204
 Se         4.7705604635        2.4670139639        3.1233546104
 Se         0.0435933033        1.9323944164       -6.9695738842
 Se         2.2733127965        0.7623703678       -3.6584263160
 Se         4.3816175435       -0.2841549253       -0.0177063702
 Se         6.9670500347       -1.1290204494        3.5565582379
 Se         2.2410869402       -2.2702007814       -6.6798205275
 Se         4.3723294721       -3.1971869108       -3.2130677403
 Se         6.4331938555       -4.1098532443        0.4136420186
 Se         4.8503033307        7.5509093293       -0.7463548497
 Se         4.8776288797        4.5477652435       -4.0091414448
 Se         7.0830986217        3.5950723552       -0.6434567968
 Se         4.7810064642        1.5273410534       -7.5566303287
 Se         6.9188050062        0.6130038217       -3.7081238627
 Se         9.1066871843       -0.0609359671       -0.0919647969
  C         6.9955771113       -6.9586634775       -2.8583426301
  H         7.7780160969       -7.1271873265       -3.6573399650
  O         5.8389952916       -6.4652991204       -3.1445809228
  O         7.2920676004       -7.2683568805       -1.6893132711
  C         3.3939431960       -6.2668607509       -6.9513074648
  H         4.3245440932       -6.8689211647       -7.0591687882
  O         3.0202466073       -5.7860511295       -5.7843136273
  O         2.6220129789       -6.1746538788       -7.9242101403
  C         6.3116555909       -2.9071154185       -7.4921130606
  H         7.0978863851       -3.7212906458       -7.4285512081
  O         6.0096715894       -2.3219711192       -6.3505932827
  O         5.9403243477       -2.4750431756       -8.6116316973
  C         8.9837561036       -3.3697375837       -3.4349055328
  H         9.9249943929       -3.8864043165       -3.1840078659
  O         8.5659407989       -3.4209184445       -4.6048832464
  O         8.2714489672       -2.6971151254       -2.5207012617
  C         9.7902109758       -4.6282247391        2.1768529346
  H        10.6284324694       -5.3337138149        2.3552924638
  O         9.7484501532       -4.1824896055        0.9942458601
  O         9.0219926648       -4.5705851174        3.1873629795
  C        -2.8252708508       -8.8894178348        5.3653894160
  H        -2.3915771747       -9.8892286280        5.4446685031
  O        -1.9808601030       -7.9304545651        5.0436955975
  O        -4.0908415257       -8.7280019527        5.4030844137
  C         3.0047406823       -8.6887063298        5.2919739424
  H         2.6853413808       -9.0312323512        6.2714246943
  O         1.9985977812       -8.3553887881        4.5599054594
  O         4.2197147413       -8.6069092298        4.9235206312
  C         2.8732291572       -5.7090624943        8.2322507888
  H         2.4095730423       -6.3582442170        8.9295273658
  O         2.2236878889       -4.8031284854        7.6183804854
  O         4.1525405945       -5.8988692439        8.1468427445
  C        -2.5324052264       -5.9090323801        8.5168983878
  H        -2.0058427467       -6.7599986745        9.0204193621
  O        -1.9189018681       -5.2527647032        7.5983339134
  O        -3.6521974131       -5.4981014961        8.8936623702
  C        -6.8661340661        2.3082426882        7.3884767521
  H        -7.2433530482        3.2983326111        7.3747512577
  O        -5.6189307919        2.1553364867        7.5292857639
  O        -7.6694328727        1.3672322100        7.2032576312
  C        -4.1128935570        6.2776012356        7.2258109093
  H        -5.2184092536        6.2949225170        7.4003980339
  O        -3.5215502414        5.2331222329        6.7794929280
  O        -3.5956064510        7.4679880815        7.3184340370
  C        -6.2584500423        7.1467273309        4.0778865765
  H        -7.2018864753        7.1620259062        4.6862261037
  O        -5.8042352338        6.0508881806        3.6277903665
  O        -5.6141473350        8.2227071687        3.8530055117
  C        -9.2670155991        2.9624473135        4.4549609073
  H        -9.7760873251        3.8307467380        4.7753730710
  O        -8.0580447847        3.0137717908        4.1153681461
  O       -10.0869615960        1.9755230626        4.3964141791
  C        -9.5997958208       -3.5202239981        4.2555074891
  H       -10.6284324694       -3.6062117458        4.7363993397
  O        -9.3836198173       -2.7271085544        3.2939504316
  O        -8.6749593009       -4.3055307223        4.7674147240
  C        -5.4063829718       -6.0836320759       -6.1576393485
  H        -6.0390997038       -6.5934387315       -6.8768176703
  O        -5.3157147411       -6.5042627408       -4.9638375967
  O        -4.7997118332       -5.0931497246       -6.6842330004
  C        -7.4812021438       -7.2683192216       -1.8337008205
  H        -7.8430239833       -7.7214409635       -2.7403108931
  O        -6.3847231004       -6.5596142310       -1.8855223803
  O        -8.0870004405       -7.4369608581       -0.7449951352
  C        -9.2637717352       -3.4248031045       -2.1287629167
  H        -9.5435102925       -4.0726156799       -2.9624854104
  O        -8.1685743898       -2.7562864935       -2.2769679175
  O        -9.8293124780       -3.4993302663       -1.0042472880
  C        -6.7198117275       -1.5155721631       -7.0057360974
  H        -7.7266400310       -1.9701098143       -7.1795729881
  O        -6.3208037730       -1.2812141421       -5.7891801227
  O        -6.0546670581       -1.2647410752       -8.0219575549
  C        -1.9610306020        5.6962737072       -7.4797868569
  H        -1.8068881661        6.7616764611       -7.4798700689
  O        -2.4613788677        5.1953402046       -6.4147373301
  O        -1.7592038190        5.0404242691       -8.5376948407
  C        -1.7153677193        9.0065729983       -3.7807068554
  H        -1.3518565997        9.2891789052       -4.8285272378
  O        -1.7735635219        7.7204009534       -3.5311974415
  O        -1.9589811591        9.8892286280       -2.9296575010
  C         2.5176986766        8.6527359013       -4.1276241396
  H         2.7356319561        9.0838176512       -5.0545617483
  O         2.0941304229        7.4607563111       -4.0382054964
  O         2.6632020791        9.4136986823       -3.1567247192
  C         1.7405814703        5.3615037054       -8.2026998584
  H         1.4592813282        6.4433815072       -8.3446733349
  O         2.2712544771        5.0744229803       -7.0359036782
  O         1.5374971892        4.4786315137       -9.0204193621
  C         9.4791869119        2.6134878200        3.9079418032
  H         9.6264681644        3.4611325178        4.5867541287
  O         8.5294682966        2.7206869475        3.0468687327
  O        10.1884170796        1.5361363159        4.0354546634
  C         6.6320899766        7.0427804887        3.3240585285
  H         7.5183451153        7.1103565644        4.0025867163
  O         6.4921259472        6.1579139584        2.4473334656
  O         5.8014508194        7.8970951585        3.5804466065
  C         4.7468288793        5.8510846562        6.9391041765
  H         5.6837062732        5.7110173508        7.4566454645
  O         4.3315486404        4.9881730889        6.0840680113
  O         4.1390624477        6.9214380767        7.1338855679
  C         7.5642974957        1.7429307679        7.1823006621
  H         8.1116275708        2.6102062210        7.6466333920
  O         6.7423080014        2.0330978891        6.2208765696
  O         7.8434776238        0.5800715711        7.5931108165
     227
 i =        1, time =        1.000, E =       -10.6675590508
 Cd        -8.6193438598        0.4796414980        3.4771637410
 Cd        -5.8715209424       -0.2572036505        7.1144021512
 Cd        -8.4082149357       -2.1541258073        0.3852407757
 Cd        -6.8927347402       -3.2918147112        3.9610961422
 Cd        -3.6901784104       -3.7003779177        7.3823806120
 Cd        -6.4419685931       -6.2357541659        0.4642786651
 Cd        -4.3123546779       -6.8296181087        3.9052061376
 Cd        -6.1163731443        3.8609280913        2.9055488421
 Cd        -3.6066086473        2.8812227655        6.5904066284
 Cd        -6.7534240554        1.1872310836       -0.3192204501
 Cd        -4.0444069522        0.0755175045        3.0501823295
 Cd        -1.7741890330       -0.3125657496        6.8335725323
 Cd        -6.3660860095       -1.4624183368       -3.4401700454
 Cd        -4.3613407447       -3.1217896311       -0.1745576292
 Cd        -2.2426107275       -3.6215605951        3.6336067579
 Cd         0.1787095829       -3.9615849723        7.0369320599
 Cd        -4.2693581850       -5.9882318962       -2.9988622263
 Cd        -2.2486954548       -6.7966236535        0.6791758476
 Cd         0.0677909793       -7.3029806728        3.8542253471
 Cd        -4.0802920628        7.4119366796        2.4182527278
 Cd        -1.6107687120        6.4879234626        6.2509655526
 Cd        -4.3325237028        4.8128034091       -0.6769486973
 Cd        -1.8303917644        3.6695887628        3.1589465904
 Cd         0.4898041029        3.1633441020        6.7205275396
 Cd        -4.5996323483        2.0001026773       -4.0890016477
 Cd        -2.1628848707        1.0181187030       -0.4517521034
 Cd         0.1384290413       -0.0681726644        3.1344098916
 Cd         2.6424453034       -0.6635631580        6.8958979584
 Cd        -4.1540688020       -0.5351526792       -6.9611290185
 Cd        -2.2031744509       -1.8491040558       -3.4900222860
 Cd         0.0358081414       -2.8474779225       -0.0250970939
 Cd         2.4397102145       -3.8215444760        3.5304676540
 Cd         4.5938405999       -4.2151920006        6.5946730671
 Cd        -2.6316830272       -4.5699791371       -6.0785430496
 Cd        -0.3609701837       -6.1210587786       -3.0631274866
 Cd         1.9864039700       -6.8523407745       -0.0374623194
 Cd         4.3578705696       -7.5050550156        3.0974021656
 Cd        -2.4320611017        8.2867240761       -1.2003454102
 Cd         0.1211452063        6.7911373765        2.0747972977
 Cd         2.2580886591        6.3879364628        5.9826498634
 Cd        -2.2740419393        5.5405392772       -4.1121176216
 Cd         0.1544601384        4.6148614734       -0.9823406769
 Cd         2.6165228803        3.7533500152        2.4610211647
 Cd         4.3939155298        2.5015241112        5.6446880639
 Cd        -2.3864811197        3.0937114622       -7.5398925428
 Cd        -0.1312638915        1.7709157861       -4.3474187711
 Cd         2.1531664675        0.8600183959       -0.9632005502
 Cd         4.3034609528       -0.4402615872        2.5248057776
 Cd         6.4920227383       -0.6517875317        6.0104809621
 Cd         0.4042672894       -0.5927779687       -7.0621290033
 Cd         2.1513097416       -1.8410908570       -3.9633300773
 Cd         4.1299687696       -2.9780220293       -0.5482304792
 Cd         6.9198185626       -3.7969801953        2.8855253617
 Cd         1.0695456744       -4.7692023970       -6.7906705132
 Cd         3.6506222066       -5.7625137272       -3.6177164685
 Cd         5.7329647310       -6.5640258422       -0.3327737997
 Cd         2.4551253450        8.1222949554       -1.1566051769
 Cd         4.4053387733        7.2897915265        1.7948263326
 Cd         2.3804050464        5.2452059326       -4.8087251730
 Cd         4.8189813006        4.7184514131       -1.4284096808
 Cd         6.7582276276        3.8401479247        2.0311415706
 Cd         2.6218058356        2.7828967381       -7.7033766302
 Cd         4.8493482469        1.7846632997       -4.5231265742
 Cd         6.7277154846        1.0650210232       -0.9631060170
 Cd         8.8867408293        0.4155746589        2.4347914070
 Cd         4.3617985721       -0.9226027373       -7.7309228806
 Cd         6.7427738861       -1.9756135115       -4.2012706274
 Cd         8.5291279795       -2.6208017753       -0.2527903686
 Se        -9.0547721909        0.2428699298        0.9183235277
 Se        -6.3727613574       -0.6564892879        4.4183061738
 Se        -3.9345402537       -1.3489458905        8.2965134231
 Se        -6.5831268701       -3.7425284844        1.3880872825
 Se        -4.5790789806       -4.2748320462        4.8597251840
 Se        -4.6122308314       -7.7765743769        1.5328432813
 Se        -6.6422583518        3.9855652489        0.4577189720
 Se        -4.0719628642        2.6208502023        3.9142883239
 Se        -1.6333306170        2.0117326559        7.9251111996
 Se        -6.7116555709        0.9828832665       -3.1654755298
 Se        -4.4070656922       -0.2111862362        0.3948947980
 Se        -2.0531408352       -1.1153535943        4.2593811329
 Se         0.4060040834       -1.5661556890        8.0650701320
 Se        -4.4160718985       -3.1299797212       -2.8046612018
 Se        -2.2374516813       -4.0915882471        0.9472046143
 Se         0.1530634426       -4.8127594175        4.4857993021
 Se        -2.4165678053       -7.4206021225       -2.0539545367
 Se        -0.0669680273       -7.8791229330        1.3095396146
 Se        -4.5521146489        7.5948395076       -0.0125846989
 Se        -1.8467438833        6.3632966152        3.5400603930
 Se         0.4037010338        5.8261687839        7.5858542439
 Se        -4.4660189328        4.5539591999       -3.3489534038
 Se        -2.0809861517        3.7152535342        0.3431772037
 Se         0.4982220584        2.6970115700        3.7286705581
 Se         2.7717962008        1.9958698091        7.6262030865
 Se        -4.6131659480        2.0747716158       -6.9049086419
 Se        -2.2788853852        0.8535235571       -3.1260976155
 Se         0.0145492511       -0.1632200836        0.3853946619
 Se         2.3129692745       -1.3189395221        3.9989979756
 Se         4.8631506920       -1.8843041829        7.7353990901
 Se        -2.0702193102       -1.9664143060       -6.4603778424
 Se        -0.0447328253       -3.1599218502       -2.8087910678
 Se         2.2323307151       -4.2314557472        0.7809356048
 Se         4.8362381393       -4.9530848576        4.0967210633
 Se        -0.7551450953       -6.2848019853       -5.8413950466
 Se         1.9250120438       -7.4790352558       -2.6076223132
 Se         4.2593696426       -8.3791678435        0.7364141554
 Se         0.0356482882        7.3686168337       -0.4913297664
 Se         2.3809091703        6.5252197588        3.1424542243
 Se         0.0437148766        4.4288303104       -3.5939940133
 Se         2.5163872706        3.6274417006       -0.0568153394
 Se         4.7726920766        2.4661944028        3.1253362768
 Se         0.0455238836        1.9299547011       -6.9704948373
 Se         2.2758205219        0.7648294857       -3.6570659419
 Se         4.3766458780       -0.2853683147       -0.0177891934
 Se         6.9677145752       -1.1294327077        3.5582526254
 Se         2.2369852327       -2.2681656856       -6.6837644526
 Se         4.3737294714       -3.1974931969       -3.2156584739
 Se         6.4331592490       -4.1116827593        0.4129886035
 Se         4.8515202424        7.5524199390       -0.7459105399
 Se         4.8774787425        4.5489826767       -4.0122179050
 Se         7.0855816138        3.5934470951       -0.6428990776
 Se         4.7816703939        1.5264106779       -7.5555479267
 Se         6.9185387690        0.6112272874       -3.7073714832
 Se         9.1068607164       -0.0627001195       -0.0923196622
  C         6.9966778827       -6.9498374625       -2.8612696708
  H         7.7649322095       -7.1224747738       -3.6684216540
  O         5.8439548252       -6.4672045064       -3.1400999755
  O         7.2884566203       -7.2741013786       -1.6935426180
  C         3.3950669389       -6.2673047959       -6.9491796141
  H         4.3444066225       -6.8936096686       -7.0753272229
  O         3.0188257087       -5.7908731749       -5.7819366436
  O         2.6176888140       -6.1688925211       -7.9239705308
  C         6.3106278956       -2.9078515169       -7.4910526904
  H         7.1299137504       -3.7048862282       -7.4466889051
  O         6.0085442352       -2.3181792807       -6.3473834448
  O         5.9393395435       -2.4742202146       -8.6124578110
  C         8.9774462354       -3.3708812418       -3.4296477926
  H         9.9250180562       -3.8774829974       -3.1826003730
  O         8.5682435596       -3.4148484241       -4.6046139229
  O         8.2717140078       -2.6966716981       -2.5200005870
  C         9.7980726476       -4.6252001182        2.1809972985
  H        10.6408655401       -5.3318691344        2.3887999993
  O         9.7470512540       -4.1804754374        0.9925656953
  O         9.0285259760       -4.5681019522        3.1870329217
  C        -2.8217303337       -8.8884361554        5.3598597452
  H        -2.4154187803       -9.9024293192        5.4343946394
  O        -1.9847204848       -7.9306424747        5.0423200206
  O        -4.0904664667       -8.7274201548        5.4044006511
  C         2.9969213199       -8.6916204446        5.2874269547
  H         2.6967725338       -9.0398269484        6.2934215078
  O         1.9992909273       -8.3578467609        4.5594059062
  O         4.2233809417       -8.6005119787        4.9153738308
  C         2.8793032843       -5.7053271140        8.2324262502
  H         2.3955873073       -6.3773024893        8.9303283437
  O         2.2189305887       -4.8088073079        7.6163308724
  O         4.1498465633       -5.9034458451        8.1535701632
  C        -2.5347127615       -5.9173480961        8.5220044378
  H        -2.0052498086       -6.7390725628        9.0096019785
  O        -1.9214200441       -5.2583138763        7.5983246239
  O        -3.6522436947       -5.5083803068        8.8927395952
  C        -6.8630676097        2.3027062801        7.3892042379
  H        -7.2086193538        3.3071349018        7.3885257928
  O        -5.6212703170        2.1591051197        7.5336837187
  O        -7.6695309067        1.3702432549        7.1999453987
  C        -4.1169970695        6.2828031771        7.2281899433
  H        -5.2418933127        6.2896177269        7.3832000201
  O        -3.5266454420        5.2290277353        6.7738204403
  O        -3.5910678467        7.4673248227        7.3180473933
  C        -6.2567422965        7.1462421500        4.0780932255
  H        -7.2111390447        7.1649409639        4.6689854642
  O        -5.8090442001        6.0478233503        3.6278530119
  O        -5.6127197365        8.2207014977        3.8486796467
  C        -9.2742192916        2.9617563438        4.4604775260
  H        -9.7855372140        3.8838940690        4.7760086716
  O        -8.0588080421        3.0119065696        4.1192658247
  O       -10.0810666180        1.9792301035        4.3921733266
  C        -9.6032791206       -3.5282198801        4.2551666561
  H       -10.5971720209       -3.6001750875        4.7566807035
  O        -9.3832665087       -2.7227912998        3.2942628402
  O        -8.6785331515       -4.3016439791        4.7629503341
  C        -5.4081382705       -6.0792335306       -6.1561941209
  H        -6.0546960796       -6.5859836395       -6.8890942905
  O        -5.3110151412       -6.5040809879       -4.9651543416
  O        -4.7983651115       -5.0927352998       -6.6852985161
  C        -7.4874935165       -7.2705726805       -1.8347942414
  H        -7.8388434959       -7.7173330376       -2.7530342297
  O        -6.3887312981       -6.5549823318       -1.8842768547
  O        -8.0716706023       -7.4408967551       -0.7458141187
  C        -9.2562778294       -3.4269982527       -2.1219757391
  H        -9.5270787848       -4.0663584857       -2.9594189931
  O        -8.1698152131       -2.7553994399       -2.2727141171
  O        -9.8242089201       -3.4939526167       -1.0091936559
  C        -6.7207098616       -1.5101446257       -7.0046004589
  H        -7.7450574417       -1.9674181007       -7.1698505571
  O        -6.3198268583       -1.2781052299       -5.7989815614
  O        -6.0632689366       -1.2634506635       -8.0154966076
  C        -1.9629087348        5.6954904026       -7.4853182868
  H        -1.7770888886        6.7764005651       -7.4923242406
  O        -2.4611808478        5.1866956923       -6.4086878465
  O        -1.7564196788        5.0403740305       -8.5283343265
  C        -1.7168944310        9.0075106461       -3.7839138464
  H        -1.3493405476        9.2660238074       -4.8465614694
  O        -1.7700613691        7.7194374327       -3.5246136860
  O        -1.9637585005        9.8895673863       -2.9408231429
  C         2.5062413862        8.6538890185       -4.1272905795
  H         2.7131102182        9.0638249498       -5.0476060874
  O         2.0944623701        7.4532090771       -4.0307310505
  O         2.6627548056        9.4111529964       -3.1552160967
  C         1.7411604251        5.3672430461       -8.1968684838
  H         1.4358383610        6.4416008070       -8.3632925476
  O         2.2781636525        5.0765859300       -7.0406586959
  O         1.5312519408        4.4833326057       -9.0175614221
  C         9.4768872340        2.6096281290        3.8999983530
  H         9.6131090334        3.4671477718        4.5843902861
  O         8.5279733999        2.7173554872        3.0491623044
  O        10.1885275157        1.5401335440        4.0330740161
  C         6.6326619586        7.0383084935        3.3282015404
  H         7.5082674956        7.1289998248        4.0070788575
  O         6.4944752465        6.1604005982        2.4465513061
  O         5.7954609547        7.9030001418        3.5812641880
  C         4.7447662287        5.8524845950        6.9354020860
  H         5.7085862008        5.7040540943        7.4370666698
  O         4.3285770174        4.9885421092        6.0815236996
  O         4.1456220928        6.9223970134        7.1371424028
  C         7.5603386177        1.7452807792        7.1878873116
  H         8.1158840311        2.6116602203        7.6593692779
  O         6.7458506755        2.0302437396        6.2244476759
  O         7.8434969324        0.5821375457        7.5895136021
     227
 i =        2, time =        2.000, E =       -10.6822070104
 Cd        -8.6170026958        0.4783143619        3.4767426357
 Cd        -5.8707052984       -0.2576897135        7.1136722848
 Cd        -8.4088632327       -2.1551397056        0.3836982035
 Cd        -6.8897143601       -3.2939577652        3.9621479063