     227
 i =        0, time =        0.000, E =       -16.0844670561
 Cd        -8.6216924880        0.4810107428        3.4775887729
 Cd        -5.8723589632       -0.2566559957        7.1151373767
 Cd        -8.4076147924       -2.1531404527        0.3867588804
 Cd        -6.8957642261       -3.2896665849        3.9600318291
 Cd        -3.6930098048       -3.6992689615        7.3819491709
 Cd        -6.4429261463       -6.2347087238        0.4622469067
 Cd        -4.3123952394       -6.8285875372        3.9039095072
 Cd        -6.1141073353        3.8626235599        2.9066844924
 Cd        -3.6048790416        2.8797284733        6.5917986711
 Cd        -6.7531255596        1.1841266196       -0.3182182747
 Cd        -4.0437606329        0.0729837467        3.0511954168
 Cd        -1.7753257667       -0.3121054857        6.8316599018
 Cd        -6.3661028473       -1.4630135273       -3.4383357626
 Cd        -4.3602814436       -3.1214810613       -0.1759283953
 Cd        -2.2424276819       -3.6242998489        3.6335413818
 Cd         0.1757294635       -3.9625201566        7.0364714760
 Cd        -4.2692200317       -5.9860442556       -3.0005266361
 Cd        -2.2482225396       -6.7972628816        0.6786391664
 Cd         0.0669003827       -7.3030327295        3.8545421700
 Cd        -4.0792754193        7.4105475565        2.4175118797
 Cd        -1.6116442377        6.4880648240        6.2478272306
 Cd        -4.3308002626        4.8127262164       -0.6762739309
 Cd        -1.8326132452        3.6694977750        3.1598212265
 Cd         0.4939817277        3.1637060931        6.7202662426
 Cd        -4.5980154021        1.9988297698       -4.0880170010
 Cd        -2.1651194586        1.0165564496       -0.4536921834
 Cd         0.1376109507       -0.0659106884        3.1336818174
 Cd         2.6419074521       -0.6636939286        6.8958319365
 Cd        -4.1515129292       -0.5348426091       -6.9620217917
 Cd        -2.2012490343       -1.8491984656       -3.4894107829
 Cd         0.0359311218       -2.8494155653       -0.0264680683
 Cd         2.4407298775       -3.8224684908        3.5289587884
 Cd         4.5907434619       -4.2169180472        6.5928471603
 Cd        -2.6321953796       -4.5685798778       -6.0773989300
 Cd        -0.3638438279       -6.1221236347       -3.0620735359
 Cd         1.9882729153       -6.8506852632       -0.0376753302
 Cd         4.3604701588       -7.5063202656        3.0981086138
 Cd        -2.4313710890        8.2839908015       -1.2010761441
 Cd         0.1210964618        6.7915494583        2.0748938605
 Cd         2.2602783261        6.3879934074        5.9824457591
 Cd        -2.2743307721        5.5403016700       -4.1096429978
 Cd         0.1552258413        4.6164378819       -0.9814446932
 Cd         2.6173372932        3.7540356816        2.4616712460
 Cd         4.3934694910        2.5024270436        5.6448470259
 Cd        -2.3839877703        3.0961459608       -7.5397423510
 Cd        -0.1308699873        1.7716472388       -4.3458913396
 Cd         2.1522040622        0.8595996928       -0.9600505658
 Cd         4.3027041934       -0.4425155449        2.5248589789
 Cd         6.4943132815       -0.6514444341        6.0110723312
 Cd         0.4032906214       -0.5920449882       -7.0625722312
 Cd         2.1504065746       -1.8410095193       -3.9631978812
 Cd         4.1282053355       -2.9764966895       -0.5499119195
 Cd         6.9189885741       -3.8001688729        2.8840486736
 Cd         1.0693858855       -4.7693596381       -6.7909688629
 Cd         3.6529341800       -5.7620820022       -3.6150795142
 Cd         5.7341856059       -6.5625995016       -0.3323817960
 Cd         2.4532379782        8.1225833618       -1.1556872380
 Cd         4.4025673150        7.2904811152        1.7928276254
 Cd         2.3800547108        5.2453457502       -4.8107637235
 Cd         4.8184663347        4.7191125514       -1.4277792117
 Cd         6.7589411702        3.8390778732        2.0295448973
 Cd         2.6210634084        2.7844913241       -7.7035228004
 Cd         4.8495943395        1.7843685348       -4.5225056138
 Cd         6.7261500983        1.0662237140       -0.9642295531
 Cd         8.8881450478        0.4141445330        2.4369093904
 Cd         4.3615782352       -0.9213178924       -7.7328888960
 Cd         6.7438649008       -1.9767569930       -4.2031112584
 Cd         8.5272445020       -2.6218905711       -0.2551455218
 Se        -9.0557725106        0.2424574140        0.9180313808
 Se        -6.3745872764       -0.6570220647        4.4225742627
 Se        -3.9358548519       -1.3506397678        8.2925868769
 Se        -6.5830028390       -3.7408669090        1.3890860046
 Se        -4.5802302415       -4.2716541219        4.8585926421
 Se        -4.6110671623       -7.7792240778        1.5343213278
 Se        -6.6407812351        3.9866809498        0.4586064126
 Se        -4.0705866514        2.6241591830        3.9150270775
 Se        -1.6315747320        2.0143859544        7.9219454430
 Se        -6.7106235468        0.9827493806       -3.1628202938
 Se        -4.4077684895       -0.2106461950        0.3970531668
 Se        -2.0534879979       -1.1190641497        4.2604482105
 Se         0.4069246601       -1.5676855049        8.0617057342
 Se        -4.4126107232       -3.1307459794       -2.8028288282
 Se        -2.2371864822       -4.0884616040        0.9473336128
 Se         0.1541797359       -4.8148952714        4.4843326207
 Se        -2.4147106009       -7.4199706225       -2.0529393442
 Se        -0.0662571417       -7.8800811154        1.3078284855
 Se        -4.5519687636        7.5920037884       -0.0122560791
 Se        -1.8482840651        6.3647212661        3.5390459072
 Se         0.4006735392        5.8241498358        7.5878867146
 Se        -4.4655945585        4.5529209660       -3.3484418515
 Se        -2.0798083538        3.7153034916        0.3451575142
 Se         0.4973892782        2.6967113851        3.7286137790
 Se         2.7724753484        1.9958260876        7.6298945277
 Se        -4.6126224962        2.0736182894       -6.9031574659
 Se        -2.2770211290        0.8531533747       -3.1284312065
 Se         0.0138865169       -0.1636477002        0.3858468104
 Se         2.3115473387       -1.3198431962        4.0017354986
 Se         4.8624545925       -1.8855864388        7.7371297607
 Se        -2.0700877949       -1.9675257511       -6.4603372509
 Se        -0.0447057629       -3.1582708631       -2.8090856920
 Se         2.2343306950       -4.2299664240        0.7817840723
 Se         4.8342987615       -4.9516929708        4.0974643468
 Se        -0.7556003326       -6.2829108386       -5.8406699955
 Se         1.9243057511       -7.4784768035       -2.6074198353
 Se         4.2543989663       -8.3809591814        0.7363809319
 Se         0.0386925703        7.3677075300       -0.4939635450
 Se         2.3791568525        6.5289221229        3.1400383851
 Se         0.0465974103        4.4270318221       -3.5936563407
 Se         2.5167269427        3.6273521599       -0.0581806204
 Se         4.7705604635        2.4670139639        3.1233546104
 Se         0.0435933033        1.9323944164       -6.9695738842
 Se         2.2733127965        0.7623703678       -3.6584263160
 Se         4.3816175435       -0.2841549253       -0.0177063702
 Se         6.9670500347       -1.1290204494        3.5565582379
 Se         2.2410869402       -2.2702007814       -6.6798205275
 Se         4.3723294721       -3.1971869108       -3.2130677403
 Se         6.4331938555       -4.1098532443        0.4136420186
 Se         4.8503033307        7.5509093293       -0.7463548497
 Se         4.8776288797        4.5477652435       -4.0091414448
 Se         7.0830986217        3.5950723552       -0.6434567968
 Se         4.7810064642        1.5273410534       -7.5566303287
 Se         6.9188050062        0.6130038217       -3.7081238627
 Se         9.1066871843       -0.0609359671       -0.0919647969
  C         6.9955771113       -6.9586634775       -2.8583426301
  H         7.7780160969       -7.1271873265       -3.6573399650
  O         5.8389952916       -6.4652991204       -3.1445809228
  O         7.2920676004       -7.2683568805       -1.6893132711
  C         3.3939431960       -6.2668607509       -6.9513074648
  H         4.3245440932       -6.8689211647       -7.0591687882
  O         3.0202466073       -5.7860511295       -5.7843136273
  O         2.6220129789       -6.1746538788       -7.9242101403
  C         6.3116555909       -2.9071154185       -7.4921130606
  H         7.0978863851       -3.7212906458       -7.4285512081
  O         6.0096715894       -2.3219711192       -6.3505932827
  O         5.9403243477       -2.4750431756       -8.6116316973
  C         8.9837561036       -3.3697375837       -3.4349055328
  H         9.9249943929       -3.8864043165       -3.1840078659
  O         8.5659407989       -3.4209184445       -4.6048832464
  O         8.2714489672       -2.6971151254       -2.5207012617
  C         9.7902109758       -4.6282247391        2.1768529346
  H        10.6284324694       -5.3337138149        2.3552924638
  O         9.7484501532       -4.1824896055        0.9942458601
  O         9.0219926648       -4.5705851174        3.1873629795
  C        -2.8252708508       -8.8894178348        5.3653894160
  H        -2.3915771747       -9.8892286280        5.4446685031
  O        -1.9808601030       -7.9304545651        5.0436955975
  O        -4.0908415257       -8.7280019527        5.4030844137
  C         3.0047406823       -8.6887063298        5.2919739424
  H         2.6853413808       -9.0312323512        6.2714246943
  O         1.9985977812       -8.3553887881        4.5599054594
  O         4.2197147413       -8.6069092298        4.9235206312
  C         2.8732291572       -5.7090624943        8.2322507888
  H         2.4095730423       -6.3582442170        8.9295273658
  O         2.2236878889       -4.8031284854        7.6183804854
  O         4.1525405945       -5.8988692439        8.1468427445
  C        -2.5324052264       -5.9090323801        8.5168983878
  H        -2.0058427467       -6.7599986745        9.0204193621
  O        -1.9189018681       -5.2527647032        7.5983339134
  O        -3.6521974131       -5.4981014961        8.8936623702
  C        -6.8661340661        2.3082426882        7.3884767521
  H        -7.2433530482        3.2983326111        7.3747512577
  O        -5.6189307919        2.1553364867        7.5292857639
  O        -7.6694328727        1.3672322100        7.2032576312
  C        -4.1128935570        6.2776012356        7.2258109093
  H        -5.2184092536        6.2949225170        7.4003980339
  O        -3.5215502414        5.2331222329        6.7794929280
  O        -3.5956064510        7.4679880815        7.3184340370
  C        -6.2584500423        7.1467273309        4.0778865765
  H        -7.2018864753        7.1620259062        4.6862261037
  O        -5.8042352338        6.0508881806        3.6277903665
  O        -5.6141473350        8.2227071687        3.8530055117
  C        -9.2670155991        2.9624473135        4.4549609073
  H        -9.7760873251        3.8307467380        4.7753730710
  O        -8.0580447847        3.0137717908        4.1153681461
  O       -10.0869615960        1.9755230626        4.3964141791
  C        -9.5997958208       -3.5202239981        4.2555074891
  H       -10.6284324694       -3.6062117458        4.7363993397
  O        -9.3836198173       -2.7271085544        3.2939504316
  O        -8.6749593009       -4.3055307223        4.7674147240
  C        -5.4063829718       -6.0836320759       -6.1576393485
  H        -6.0390997038       -6.5934387315       -6.8768176703
  O        -5.3157147411       -6.5042627408       -4.9638375967
  O        -4.7997118332       -5.0931497246       -6.6842330004
  C        -7.4812021438       -7.2683192216       -1.8337008205
  H        -7.8430239833       -7.7214409635       -2.7403108931
  O        -6.3847231004       -6.5596142310       -1.8855223803
  O        -8.0870004405       -7.4369608581       -0.7449951352
  C        -9.2637717352       -3.4248031045       -2.1287629167
  H        -9.5435102925       -4.0726156799       -2.9624854104
  O        -8.1685743898       -2.7562864935       -2.2769679175
  O        -9.8293124780       -3.4993302663       -1.0042472880
  C        -6.7198117275       -1.5155721631       -7.0057360974
  H        -7.7266400310       -1.9701098143       -7.1795729881
  O        -6.3208037730       -1.2812141421       -5.7891801227
  O        -6.0546670581       -1.2647410752       -8.0219575549
  C        -1.9610306020        5.6962737072       -7.4797868569
  H        -1.8068881661        6.7616764611       -7.4798700689
  O        -2.4613788677        5.1953402046       -6.4147373301
  O        -1.7592038190        5.0404242691       -8.5376948407
  C        -1.7153677193        9.0065729983       -3.7807068554
  H        -1.3518565997        9.2891789052       -4.8285272378
  O        -1.7735635219        7.7204009534       -3.5311974415
  O        -1.9589811591        9.8892286280       -2.9296575010
  C         2.5176986766        8.6527359013       -4.1276241396
  H         2.7356319561        9.0838176512       -5.0545617483
  O         2.0941304229        7.4607563111       -4.0382054964
  O         2.6632020791        9.4136986823       -3.1567247192
  C         1.7405814703        5.3615037054       -8.2026998584
  H         1.4592813282        6.4433815072       -8.3446733349
  O         2.2712544771        5.0744229803       -7.0359036782
  O         1.5374971892        4.4786315137       -9.0204193621
  C         9.4791869119        2.6134878200        3.9079418032
  H         9.6264681644        3.4611325178        4.5867541287
  O         8.5294682966        2.7206869475        3.0468687327
  O        10.1884170796        1.5361363159        4.0354546634
  C         6.6320899766        7.0427804887        3.3240585285
  H         7.5183451153        7.1103565644        4.0025867163
  O         6.4921259472        6.1579139584        2.4473334656
  O         5.8014508194        7.8970951585        3.5804466065
  C         4.7468288793        5.8510846562        6.9391041765
  H         5.6837062732        5.7110173508        7.4566454645
  O         4.3315486404        4.9881730889        6.0840680113
  O         4.1390624477        6.9214380767        7.1338855679
  C         7.5642974957        1.7429307679        7.1823006621
  H         8.1116275708        2.6102062210        7.6466333920
  O         6.7423080014        2.0330978891        6.2208765696
  O         7.8434776238        0.5800715711        7.5931108165
     227
 i =        1, time =        1.000, E =       -16.0956206032
 Cd        -8.6193363576        0.4796370322        3.4772025747
 Cd        -5.8716141217       -0.2571566720        7.1143693768
 Cd        -8.4082395110       -2.1541864303        0.3851972683
 Cd        -6.8927091545       -3.2917675960        3.9610994631
 Cd        -3.6901831907       -3.7004460916        7.3823598285
 Cd        -6.4420062813       -6.2357571358        0.4642689708
 Cd        -4.3123396696       -6.8296168413        3.9052840691
 Cd        -6.1164207051        3.8609313487        2.9056424208
 Cd        -3.6066803489        2.8812552577        6.5903787888
 Cd        -6.7534353322        1.1872534889       -0.3192313960
 Cd        -4.0444611147        0.0755190444        3.0501748805
 Cd        -1.7741843916       -0.3126254430        6.8335816652
 Cd        -6.3661248080       -1.4625392800       -3.4401808397
 Cd        -4.3614024543       -3.1217562102       -0.1745367420
 Cd        -2.2426074215       -3.6216260499        3.6336085844
 Cd         0.1786608261       -3.9616185720        7.0369480714
 Cd        -4.2694275855       -5.9881755091       -2.9988716221
 Cd        -2.2487742185       -6.7966034957        0.6791325306
 Cd         0.0677636723       -7.3030523067        3.8542575990
 Cd        -4.0802589205        7.4119189361        2.4183505946
 Cd        -1.6108530752        6.4879812514        6.2509304529
 Cd        -4.3325455029        4.8128320891       -0.6769519808
 Cd        -1.8304038905        3.6696272386        3.1589157993
 Cd         0.4898088671        3.1633481894        6.7205187351
 Cd        -4.5995745752        2.0001313118       -4.0890638861
 Cd        -2.1629262663        1.0181649119       -0.4517555571
 Cd         0.1384265392       -0.0681407791        3.1344138396
 Cd         2.6424378918       -0.6635471437        6.8958881835
 Cd        -4.1541121283       -0.5351412415       -6.9611305838
 Cd        -2.2031960765       -1.8490733006       -3.4900621814
 Cd         0.0358006183       -2.8475058758       -0.0251039742
 Cd         2.4397271296       -3.8216220698        3.5304487100
 Cd         4.5938305933       -4.2152187479        6.5947024769
 Cd        -2.6317435682       -4.5699543221       -6.0785421886
 Cd        -0.3609493163       -6.1210353030       -3.0631501225
 Cd         1.9864291110       -6.8523503161       -0.0374484961
 Cd         4.3578740133       -7.5049584933        3.0973776047
 Cd        -2.4319988526        8.2867649274       -1.2004082178
 Cd         0.1211447407        6.7911751221        2.0747131145
 Cd         2.2581429442        6.3879562486        5.9825671350
 Cd        -2.2740023705        5.5405902744       -4.1121587173
 Cd         0.1544534766        4.6148790098       -0.9823169295
 Cd         2.6165053608        3.7534026816        2.4611023300
 Cd         4.3939508611        2.5015497387        5.6447486881
 Cd        -2.3864268558        3.0937143121       -7.5399164074
 Cd        -0.1312581021        1.7709442503       -4.3474106448
 Cd         2.1531725614        0.8600559905       -0.9632072358
 Cd         4.3035197564       -0.4402398817        2.5248721159
 Cd         6.4920386806       -0.6517402387        6.0105574084
 Cd         0.4041935651       -0.5927948150       -7.0621624046
 Cd         2.1513067658       -1.8411368848       -3.9633375053
 Cd         4.1300044609       -2.9780071517       -0.5482418543
 Cd         6.9198259708       -3.7969500906        2.8855987197
 Cd         1.0695972052       -4.7691574747       -6.7907060901
 Cd         3.6506561651       -5.7625182482       -3.6176998237
 Cd         5.7329310643       -6.5639845070       -0.3327709701
 Cd         2.4550513902        8.1223437042       -1.1566608025
 Cd         4.4054044357        7.2898165832        1.7948277734
 Cd         2.3804075225        5.2452220706       -4.8086817838
 Cd         4.8189551175        4.7184884571       -1.4283617731
 Cd         6.7582564097        3.8401796480        2.0311398776
 Cd         2.6217168864        2.7829586071       -7.7033892384
 Cd         4.8492661522        1.7847183750       -4.5231775932
 Cd         6.7277127007        1.0649530668       -0.9631220742
 Cd         8.8867534655        0.4155852710        2.4348304903
 Cd         4.3618057854       -0.9227294552       -7.7309365988
 Cd         6.7427701498       -1.9756382914       -4.2012537156
 Cd         8.5291541744       -2.6208111357       -0.2527849023
 Se        -9.0548589738        0.2429868681        0.9182645833
 Se        -6.3727815760       -0.6564797233        4.4183368793
 Se        -3.9344831761       -1.3489252395        8.2966856703
 Se        -6.5831118220       -3.7425685156        1.3880228433
 Se        -4.5790539590       -4.2749331575        4.8598022796
 Se        -4.6122580562       -7.7766961189        1.5328120082
 Se        -6.6423549313        3.9855458815        0.4575619417
 Se        -4.0719639447        2.6208341729        3.9143576557
 Se        -1.6332557147        2.0118241582        7.9252439950
 Se        -6.7118640871        0.9830013221       -3.1653906490
 Se        -4.4070981931       -0.2112127307        0.3948851617
 Se        -2.0530787526       -1.1152964028        4.2594185283
 Se         0.4059875842       -1.5661660560        8.0651451503
 Se        -4.4160863959       -3.1300698560       -2.8047288728
 Se        -2.2373774927       -4.0915881356        0.9472189070
 Se         0.1530175357       -4.8127186426        4.4858391612
 Se        -2.4165528600       -7.4207284097       -2.0539268944
 Se        -0.0668593992       -7.8792644813        1.3095767461
 Se        -4.5522672692        7.5948655612       -0.0127206993
 Se        -1.8468748244        6.3633368585        3.5401896466
 Se         0.4037247431        5.8261364570        7.5860597690
 Se        -4.4661537510        4.5539991075       -3.3489510486
 Se        -2.0809558334        3.7152247528        0.3431648506
 Se         0.4982596305        2.6969503324        3.7287512556
 Se         2.7717984944        1.9958752411        7.6262716264
 Se        -4.6133008190        2.0747595148       -6.9049257593
 Se        -2.2789063883        0.8534901834       -3.1261206935
 Se         0.0146023797       -0.1632417115        0.3854214655
 Se         2.3129889204       -1.3188154151        3.9990983369
 Se         4.8631990019       -1.8842961587        7.7354879288
 Se        -2.0701323365       -1.9664319916       -6.4603928075
 Se        -0.0446622554       -3.1599770616       -2.8087778967
 Se         2.2322925225       -4.2314696282        0.7809462875
 Se         4.8362493371       -4.9531603757        4.0967332822
 Se        -0.7551568760       -6.2849674889       -5.8413964879
 Se         1.9250123727       -7.4791088990       -2.6076760139
 Se         4.2593443899       -8.3793317687        0.7363382358
 Se         0.0356087306        7.3686523707       -0.4913411404
 Se         2.3809755517        6.5252092347        3.1426142370
 Se         0.0437682853        4.4288209818       -3.5940510131
 Se         2.5163791259        3.6274354902       -0.0570071287
 Se         4.7727712481        2.4661118436        3.1253020939
 Se         0.0455075216        1.9300428558       -6.9706051386
 Se         2.2758607603        0.7648838921       -3.6570586019
 Se         4.3766863989       -0.2853687313       -0.0178998270
 Se         6.9677187983       -1.1294763622        3.5581713354
 Se         2.2370663595       -2.2682737287       -6.6838062603
 Se         4.3737653835       -3.1974874749       -3.2156762272
 Se         6.4331455455       -4.1117113502        0.4128728546
 Se         4.8517157344        7.5524173937       -0.7459568287
 Se         4.8774844888        4.5489956878       -4.0123496033
 Se         7.0856768403        3.5935591437       -0.6428569835
 Se         4.7818560348        1.5265214675       -7.5555459732
 Se         6.9186853263        0.6111993323       -3.7073443642
 Se         9.1069523337       -0.0626828469       -0.0923922997
  C         6.9966686033       -6.9497867624       -2.8612720201
  H         7.7649322095       -7.1224747738       -3.6684216540
  O         5.8442190802       -6.4673028592       -3.1399864249
  O         7.2890605800       -7.2743505483       -1.6940875398
  C         3.3950895118       -6.2672770421       -6.9491521753
  H         4.3444066225       -6.8936096686       -7.0753272229
  O         3.0188013984       -5.7909007236       -5.7823602025
  O         2.6178089023       -6.1689662037       -7.9240445426
  C         6.3106269144       -2.9078685275       -7.4909957415
  H         7.1299137504       -3.7048862282       -7.4466889051
  O         6.0084280893       -2.3182415162       -6.3477689624
  O         5.9394326464       -2.4743296251       -8.6124973395
  C         8.9774055447       -3.3708914952       -3.4296278544
  H         9.9250180562       -3.8774829974       -3.1826003730
  O         8.5683954235       -3.4149845344       -4.6046208085
  O         8.2717584027       -2.6967905292       -2.5203131945
  C         9.7980341783       -4.6251850223        2.1809820386
  H        10.6408655401       -5.3318691344        2.3887999993
  O         9.7472070342       -4.1806302816        0.9927538722
  O         9.0289622724       -4.5682472276        3.1870948240
  C        -2.8217149938       -8.8883958986        5.3598600097
  H        -2.4154187803       -9.9024293192        5.4343946394
  O        -1.9848614863       -7.9306295301        5.0423548345
  O        -4.0904307424       -8.7274690965        5.4044677474
  C         2.9969106980       -8.6915779833        5.2874335312
  H         2.6967725338       -9.0398269484        6.2934215078
  O         1.9996402021       -8.3579625504        4.5595074737
  O         4.2232796785       -8.6011168483        4.9164062719
  C         2.8792818618       -5.7053298989        8.2323933955
  H         2.3955873073       -6.3773024893        8.9303283437
  O         2.2193194009       -4.8089704559        7.6163805969
  O         4.1497666417       -5.9036444734        8.1537142961
  C        -2.5347028571       -5.9173529360        8.5219554782
  H        -2.0052498086       -6.7390725628        9.0096019785
  O        -1.9213034205       -5.2584570124        7.5983543201
  O        -3.6522297765       -5.5085543097        8.8928574916
  C        -6.8630592379        2.3027128593        7.3891483961
  H        -7.2086193538        3.3071349018        7.3885257928
  O        -5.6215182844        2.1591072512        7.5337826195
  O        -7.6695900403        1.3703300003        7.1999467454
  C        -4.1170103161        6.2827780466        7.2281511842
  H        -5.2418933127        6.2896177269        7.3832000201
  O        -3.5268451846        5.2291212371        6.7738694676
  O        -3.5911151645        7.4673325913        7.3180396813
  C        -6.2567232057        7.1462076508        4.0781075789
  H        -7.2111390447        7.1649409639        4.6689854642
  O        -5.8090075953        6.0481079443        3.6280049311
  O        -5.6130310194        8.2208416854        3.8490121129
  C        -9.2741757803        2.9617318416        4.4604908044
  H        -9.7855372140        3.8838940690        4.7760086716
  O        -8.0588888927        3.0118489163        4.1193378178
  O       -10.0812923903        1.9794838099        4.3923493677
  C        -9.6032493447       -3.5282030436        4.2551489591
  H       -10.5971720209       -3.6001750875        4.7566807035
  O        -9.3832246633       -2.7227493337        3.2942683132
  O        -8.6791352144       -4.3019764260        4.7632266464
  C        -5.4081388678       -6.0792045920       -6.1561632185
  H        -6.0546960796       -6.5859836395       -6.8890942905
  O        -5.3111604363       -6.5041112204       -4.9655218487
  O        -4.7986729344       -5.0927922991       -6.6853450911
  C        -7.4874748041       -7.2705261965       -1.8348021110
  H        -7.8388434959       -7.7173330376       -2.7530342297
  O        -6.3888174693       -6.5549892229       -1.8844289296
  O        -8.0717866082       -7.4409670196       -0.7459070628
  C        -9.2562352797       -3.4270143194       -2.1219620906
  H        -9.5270787848       -4.0663584857       -2.9594189931
  O        -8.1698484555       -2.7554325622       -2.2726299218
  O        -9.8242626284       -3.4940416875       -1.0092904762
  C        -6.7206927237       -1.5101723110       -7.0045698424
  H        -7.7450574417       -1.9674181007       -7.1698505571
  O        -6.3197737820       -1.2781514669       -5.7992357724
  O        -6.0635562116       -1.2636020471       -8.0156435947
  C        -1.9628772001        5.6954831711       -7.4852885911
  H        -1.7770888886        6.7764005651       -7.4923242406
  O        -2.4611592289        5.1868254021       -6.4088949923
  O        -1.7562920428        5.0407344834       -8.5284842906
  C        -1.7168633758        9.0074760969       -3.7839172104
  H        -1.3493405476        9.2660238074       -4.8465614694
  O        -1.7699911781        7.7197593280       -3.5246031887
  O        -1.9637252285        9.8896217721       -2.9409044142
  C         2.5062142829        8.6538590470       -4.1272911793
  H         2.7131102182        9.0638249498       -5.0476060874
  O         2.0944268274        7.4534402878       -4.0306146296
  O         2.6627309400        9.4112387360       -3.1553568514
  C         1.7411237906        5.3672390062       -8.1968397606
  H         1.4358383610        6.4416008070       -8.3632925476
  O         2.2780885115        5.0766645132       -7.0412139488
  O         1.5312133030        4.4834341769       -9.0176115447
  C         9.4768345970        2.6096220124        3.9000127819
  H         9.6131090334        3.4671477718        4.5843902861
  O         8.5281834109        2.7173467100        3.0493545535
  O        10.1886346517        1.5402460693        4.0332291426
  C         6.6326424491        7.0382685860        3.3282184955
  H         7.5082674956        7.1289998248        4.0070788575
  O         6.4944888241        6.1605507536        2.4466462782
  O         5.7955888089        7.9030304942        3.5814389289
  C         4.7447775018        5.8524668865        6.9353630901
  H         5.7085862008        5.7040540943        7.4370666698
  O         4.3286081071        4.9885562875        6.0814913871
  O         4.1460069653        6.9224926397        7.1373350336
  C         7.5603292734        1.7452827134        7.1878428079
  H         8.1158840311        2.6116602203        7.6593692779
  O         6.7459423823        2.0301850642        6.2244596431
  O         7.8435643567        0.5822108027        7.5895514043
     227
 i =        2, time =        2.000, E =       -16.1153911481
 Cd        -8.6169740751        0.4782966721        3.4768981608
 Cd        -5.8710766829       -0.2575013711        7.1135413340
 Cd        -8.4089604121       -2.1553795675        0.3835262483
 Cd        -6.8896098886       -3.2937716283        3.9621568197