     227
 i =        0, time =        0.000, E =       -43.9000933222
 Cd        -8.6216924880        0.4810107428        3.4775887729
 Cd        -5.8723589632       -0.2566559957        7.1151373767
 Cd        -8.4076147924       -2.1531404527        0.3867588804
 Cd        -6.8957642261       -3.2896665849        3.9600318291
 Cd        -3.6930098048       -3.6992689615        7.3819491709
 Cd        -6.4429261463       -6.2347087238        0.4622469067
 Cd        -4.3123952394       -6.8285875372        3.9039095072
 Cd        -6.1141073353        3.8626235599        2.9066844924
 Cd        -3.6048790416        2.8797284733        6.5917986711
 Cd        -6.7531255596        1.1841266196       -0.3182182747
 Cd        -4.0437606329        0.0729837467        3.0511954168
 Cd        -1.7753257667       -0.3121054857        6.8316599018
 Cd        -6.3661028473       -1.4630135273       -3.4383357626
 Cd        -4.3602814436       -3.1214810613       -0.1759283953
 Cd        -2.2424276819       -3.6242998489        3.6335413818
 Cd         0.1757294635       -3.9625201566        7.0364714760
 Cd        -4.2692200317       -5.9860442556       -3.0005266361
 Cd        -2.2482225396       -6.7972628816        0.6786391664
 Cd         0.0669003827       -7.3030327295        3.8545421700
 Cd        -4.0792754193        7.4105475565        2.4175118797
 Cd        -1.6116442377        6.4880648240        6.2478272306
 Cd        -4.3308002626        4.8127262164       -0.6762739309
 Cd        -1.8326132452        3.6694977750        3.1598212265
 Cd         0.4939817277        3.1637060931        6.7202662426
 Cd        -4.5980154021        1.9988297698       -4.0880170010
 Cd        -2.1651194586        1.0165564496       -0.4536921834
 Cd         0.1376109507       -0.0659106884        3.1336818174
 Cd         2.6419074521       -0.6636939286        6.8958319365
 Cd        -4.1515129292       -0.5348426091       -6.9620217917
 Cd        -2.2012490343       -1.8491984656       -3.4894107829
 Cd         0.0359311218       -2.8494155653       -0.0264680683
 Cd         2.4407298775       -3.8224684908        3.5289587884
 Cd         4.5907434619       -4.2169180472        6.5928471603
 Cd        -2.6321953796       -4.5685798778       -6.0773989300
 Cd        -0.3638438279       -6.1221236347       -3.0620735359
 Cd         1.9882729153       -6.8506852632       -0.0376753302
 Cd         4.3604701588       -7.5063202656        3.0981086138
 Cd        -2.4313710890        8.2839908015       -1.2010761441
 Cd         0.1210964618        6.7915494583        2.0748938605
 Cd         2.2602783261        6.3879934074        5.9824457591
 Cd        -2.2743307721        5.5403016700       -4.1096429978
 Cd         0.1552258413        4.6164378819       -0.9814446932
 Cd         2.6173372932        3.7540356816        2.4616712460
 Cd         4.3934694910        2.5024270436        5.6448470259
 Cd        -2.3839877703        3.0961459608       -7.5397423510
 Cd        -0.1308699873        1.7716472388       -4.3458913396
 Cd         2.1522040622        0.8595996928       -0.9600505658
 Cd         4.3027041934       -0.4425155449        2.5248589789
 Cd         6.4943132815       -0.6514444341        6.0110723312
 Cd         0.4032906214       -0.5920449882       -7.0625722312
 Cd         2.1504065746       -1.8410095193       -3.9631978812
 Cd         4.1282053355       -2.9764966895       -0.5499119195
 Cd         6.9189885741       -3.8001688729        2.8840486736
 Cd         1.0693858855       -4.7693596381       -6.7909688629
 Cd         3.6529341800       -5.7620820022       -3.6150795142
 Cd         5.7341856059       -6.5625995016       -0.3323817960
 Cd         2.4532379782        8.1225833618       -1.1556872380
 Cd         4.4025673150        7.2904811152        1.7928276254
 Cd         2.3800547108        5.2453457502       -4.8107637235
 Cd         4.8184663347        4.7191125514       -1.4277792117
 Cd         6.7589411702        3.8390778732        2.0295448973
 Cd         2.6210634084        2.7844913241       -7.7035228004
 Cd         4.8495943395        1.7843685348       -4.5225056138
 Cd         6.7261500983        1.0662237140       -0.9642295531
 Cd         8.8881450478        0.4141445330        2.4369093904
 Cd         4.3615782352       -0.9213178924       -7.7328888960
 Cd         6.7438649008       -1.9767569930       -4.2031112584
 Cd         8.5272445020       -2.6218905711       -0.2551455218
 Se        -9.0557725106        0.2424574140        0.9180313808
 Se        -6.3745872764       -0.6570220647        4.4225742627
 Se        -3.9358548519       -1.3506397678        8.2925868769
 Se        -6.5830028390       -3.7408669090        1.3890860046
 Se        -4.5802302415       -4.2716541219        4.8585926421
 Se        -4.6110671623       -7.7792240778        1.5343213278
 Se        -6.6407812351        3.9866809498        0.4586064126
 Se        -4.0705866514        2.6241591830        3.9150270775
 Se        -1.6315747320        2.0143859544        7.9219454430
 Se        -6.7106235468        0.9827493806       -3.1628202938
 Se        -4.4077684895       -0.2106461950        0.3970531668
 Se        -2.0534879979       -1.1190641497        4.2604482105
 Se         0.4069246601       -1.5676855049        8.0617057342
 Se        -4.4126107232       -3.1307459794       -2.8028288282
 Se        -2.2371864822       -4.0884616040        0.9473336128
 Se         0.1541797359       -4.8148952714        4.4843326207
 Se        -2.4147106009       -7.4199706225       -2.0529393442
 Se        -0.0662571417       -7.8800811154        1.3078284855
 Se        -4.5519687636        7.5920037884       -0.0122560791
 Se        -1.8482840651        6.3647212661        3.5390459072
 Se         0.4006735392        5.8241498358        7.5878867146
 Se        -4.4655945585        4.5529209660       -3.3484418515
 Se        -2.0798083538        3.7153034916        0.3451575142
 Se         0.4973892782        2.6967113851        3.7286137790
 Se         2.7724753484        1.9958260876        7.6298945277
 Se        -4.6126224962        2.0736182894       -6.9031574659
 Se        -2.2770211290        0.8531533747       -3.1284312065
 Se         0.0138865169       -0.1636477002        0.3858468104
 Se         2.3115473387       -1.3198431962        4.0017354986
 Se         4.8624545925       -1.8855864388        7.7371297607
 Se        -2.0700877949       -1.9675257511       -6.4603372509
 Se        -0.0447057629       -3.1582708631       -2.8090856920
 Se         2.2343306950       -4.2299664240        0.7817840723
 Se         4.8342987615       -4.9516929708        4.0974643468
 Se        -0.7556003326       -6.2829108386       -5.8406699955
 Se         1.9243057511       -7.4784768035       -2.6074198353
 Se         4.2543989663       -8.3809591814        0.7363809319
 Se         0.0386925703        7.3677075300       -0.4939635450
 Se         2.3791568525        6.5289221229        3.1400383851
 Se         0.0465974103        4.4270318221       -3.5936563407
 Se         2.5167269427        3.6273521599       -0.0581806204
 Se         4.7705604635        2.4670139639        3.1233546104
 Se         0.0435933033        1.9323944164       -6.9695738842
 Se         2.2733127965        0.7623703678       -3.6584263160
 Se         4.3816175435       -0.2841549253       -0.0177063702
 Se         6.9670500347       -1.1290204494        3.5565582379
 Se         2.2410869402       -2.2702007814       -6.6798205275
 Se         4.3723294721       -3.1971869108       -3.2130677403
 Se         6.4331938555       -4.1098532443        0.4136420186
 Se         4.8503033307        7.5509093293       -0.7463548497
 Se         4.8776288797        4.5477652435       -4.0091414448
 Se         7.0830986217        3.5950723552       -0.6434567968
 Se         4.7810064642        1.5273410534       -7.5566303287
 Se         6.9188050062        0.6130038217       -3.7081238627
 Se         9.1066871843       -0.0609359671       -0.0919647969
  C         6.9955771113       -6.9586634775       -2.8583426301
  H         7.7780160969       -7.1271873265       -3.6573399650
  O         5.8389952916       -6.4652991204       -3.1445809228
  O         7.2920676004       -7.2683568805       -1.6893132711
  C         3.3939431960       -6.2668607509       -6.9513074648
  H         4.3245440932       -6.8689211647       -7.0591687882
  O         3.0202466073       -5.7860511295       -5.7843136273
  O         2.6220129789       -6.1746538788       -7.9242101403
  C         6.3116555909       -2.9071154185       -7.4921130606
  H         7.0978863851       -3.7212906458       -7.4285512081
  O         6.0096715894       -2.3219711192       -6.3505932827
  O         5.9403243477       -2.4750431756       -8.6116316973
  C         8.9837561036       -3.3697375837       -3.4349055328
  H         9.9249943929       -3.8864043165       -3.1840078659
  O         8.5659407989       -3.4209184445       -4.6048832464
  O         8.2714489672       -2.6971151254       -2.5207012617
  C         9.7902109758       -4.6282247391        2.1768529346
  H        10.6284324694       -5.3337138149        2.3552924638
  O         9.7484501532       -4.1824896055        0.9942458601
  O         9.0219926648       -4.5705851174        3.1873629795
  C        -2.8252708508       -8.8894178348        5.3653894160
  H        -2.3915771747       -9.8892286280        5.4446685031
  O        -1.9808601030       -7.9304545651        5.0436955975
  O        -4.0908415257       -8.7280019527        5.4030844137
  C         3.0047406823       -8.6887063298        5.2919739424
  H         2.6853413808       -9.0312323512        6.2714246943
  O         1.9985977812       -8.3553887881        4.5599054594
  O         4.2197147413       -8.6069092298        4.9235206312
  C         2.8732291572       -5.7090624943        8.2322507888
  H         2.4095730423       -6.3582442170        8.9295273658
  O         2.2236878889       -4.8031284854        7.6183804854
  O         4.1525405945       -5.8988692439        8.1468427445
  C        -2.5324052264       -5.9090323801        8.5168983878
  H        -2.0058427467       -6.7599986745        9.0204193621
  O        -1.9189018681       -5.2527647032        7.5983339134
  O        -3.6521974131       -5.4981014961        8.8936623702
  C        -6.8661340661        2.3082426882        7.3884767521
  H        -7.2433530482        3.2983326111        7.3747512577
  O        -5.6189307919        2.1553364867        7.5292857639
  O        -7.6694328727        1.3672322100        7.2032576312
  C        -4.1128935570        6.2776012356        7.2258109093
  H        -5.2184092536        6.2949225170        7.4003980339
  O        -3.5215502414        5.2331222329        6.7794929280
  O        -3.5956064510        7.4679880815        7.3184340370
  C        -6.2584500423        7.1467273309        4.0778865765
  H        -7.2018864753        7.1620259062        4.6862261037
  O        -5.8042352338        6.0508881806        3.6277903665
  O        -5.6141473350        8.2227071687        3.8530055117
  C        -9.2670155991        2.9624473135        4.4549609073
  H        -9.7760873251        3.8307467380        4.7753730710
  O        -8.0580447847        3.0137717908        4.1153681461
  O       -10.0869615960        1.9755230626        4.3964141791
  C        -9.5997958208       -3.5202239981        4.2555074891
  H       -10.6284324694       -3.6062117458        4.7363993397
  O        -9.3836198173       -2.7271085544        3.2939504316
  O        -8.6749593009       -4.3055307223        4.7674147240
  C        -5.4063829718       -6.0836320759       -6.1576393485
  H        -6.0390997038       -6.5934387315       -6.8768176703
  O        -5.3157147411       -6.5042627408       -4.9638375967
  O        -4.7997118332       -5.0931497246       -6.6842330004
  C        -7.4812021438       -7.2683192216       -1.8337008205
  H        -7.8430239833       -7.7214409635       -2.7403108931
  O        -6.3847231004       -6.5596142310       -1.8855223803
  O        -8.0870004405       -7.4369608581       -0.7449951352
  C        -9.2637717352       -3.4248031045       -2.1287629167
  H        -9.5435102925       -4.0726156799       -2.9624854104
  O        -8.1685743898       -2.7562864935       -2.2769679175
  O        -9.8293124780       -3.4993302663       -1.0042472880
  C        -6.7198117275       -1.5155721631       -7.0057360974
  H        -7.7266400310       -1.9701098143       -7.1795729881
  O        -6.3208037730       -1.2812141421       -5.7891801227
  O        -6.0546670581       -1.2647410752       -8.0219575549
  C        -1.9610306020        5.6962737072       -7.4797868569
  H        -1.8068881661        6.7616764611       -7.4798700689
  O        -2.4613788677        5.1953402046       -6.4147373301
  O        -1.7592038190        5.0404242691       -8.5376948407
  C        -1.7153677193        9.0065729983       -3.7807068554
  H        -1.3518565997        9.2891789052       -4.8285272378
  O        -1.7735635219        7.7204009534       -3.5311974415
  O        -1.9589811591        9.8892286280       -2.9296575010
  C         2.5176986766        8.6527359013       -4.1276241396
  H         2.7356319561        9.0838176512       -5.0545617483
  O         2.0941304229        7.4607563111       -4.0382054964
  O         2.6632020791        9.4136986823       -3.1567247192
  C         1.7405814703        5.3615037054       -8.2026998584
  H         1.4592813282        6.4433815072       -8.3446733349
  O         2.2712544771        5.0744229803       -7.0359036782
  O         1.5374971892        4.4786315137       -9.0204193621
  C         9.4791869119        2.6134878200        3.9079418032
  H         9.6264681644        3.4611325178        4.5867541287
  O         8.5294682966        2.7206869475        3.0468687327
  O        10.1884170796        1.5361363159        4.0354546634
  C         6.6320899766        7.0427804887        3.3240585285
  H         7.5183451153        7.1103565644        4.0025867163
  O         6.4921259472        6.1579139584        2.4473334656
  O         5.8014508194        7.8970951585        3.5804466065
  C         4.7468288793        5.8510846562        6.9391041765
  H         5.6837062732        5.7110173508        7.4566454645
  O         4.3315486404        4.9881730889        6.0840680113
  O         4.1390624477        6.9214380767        7.1338855679
  C         7.5642974957        1.7429307679        7.1823006621
  H         8.1116275708        2.6102062210        7.6466333920
  O         6.7423080014        2.0330978891        6.2208765696
  O         7.8434776238        0.5800715711        7.5931108165
     227
 i =        1, time =        1.000, E =       -43.9150552943
 Cd        -8.6193612569        0.4797093327        3.4771559962
 Cd        -5.8715249845       -0.2571255427        7.1144265529
 Cd        -8.4082869562       -2.1541473065        0.3852203455
 Cd        -6.8927644892       -3.2918171715        3.9610827469
 Cd        -3.6901753852       -3.7004283951        7.3824725757
 Cd        -6.4420109005       -6.2358225412        0.4642109425
 Cd        -4.3123488422       -6.8297101441        3.9052306288
 Cd        -6.1164331468        3.8609607571        2.9055683997
 Cd        -3.6066621067        2.8812559537        6.5905008836
 Cd        -6.7534872135        1.1872713332       -0.3192466663
 Cd        -4.0444896502        0.0755258089        3.0502276183
 Cd        -1.7741651803       -0.3125646965        6.8337164735
 Cd        -6.3661622792       -1.4623908179       -3.4402120061
 Cd        -4.3613630559       -3.1217909684       -0.1745421393
 Cd        -2.2426352809       -3.6215533223        3.6336490591
 Cd         0.1787552385       -3.9616053799        7.0369948555
 Cd        -4.2694369915       -5.9883328501       -2.9988884887
 Cd        -2.2486786839       -6.7967183617        0.6791277350
 Cd         0.0678061939       -7.3030329391        3.8542431272
 Cd        -4.0804223809        7.4119280360        2.4182705174
 Cd        -1.6108466112        6.4878991196        6.2510599046
 Cd        -4.3326324671        4.8128245721       -0.6770012032
 Cd        -1.8304449932        3.6696134520        3.1589523157
 Cd         0.4898117540        3.1632955345        6.7206660373
 Cd        -4.5997544685        2.0001736387       -4.0890112254
 Cd        -2.1629492397        1.0181326117       -0.4517914619
 Cd         0.1384530029       -0.0681900888        3.1344735240
 Cd         2.6424272718       -0.6635624578        6.8960482439
 Cd        -4.1542012289       -0.5351624735       -6.9611485050
 Cd        -2.2032140621       -1.8491200401       -3.4900316552
 Cd         0.0358078911       -2.8475697930       -0.0251081497
 Cd         2.4397035730       -3.8215579801        3.5304851988
 Cd         4.5938035845       -4.2152391397        6.5947617367
 Cd        -2.6317333609       -4.5700405560       -6.0785964468
 Cd        -0.3609675736       -6.1212050061       -3.0631709836
 Cd         1.9863819460       -6.8524533240       -0.0374829061
 Cd         4.3578309685       -7.5051483545        3.0974580543
 Cd        -2.4320711381        8.2867337189       -1.2004490323
 Cd         0.1211459606        6.7911688821        2.0748356598
 Cd         2.2582038104        6.3879197230        5.9827765537
 Cd        -2.2740673535        5.5405677928       -4.1121775356
 Cd         0.1544494938        4.6149079338       -0.9824150195
 Cd         2.6165613974        3.7533218935        2.4609944108
 Cd         4.3939939347        2.5015934989        5.6447300038
 Cd        -2.3865233049        3.0938426726       -7.5398733044
 Cd        -0.1312668302        1.7709989974       -4.3474545380
 Cd         2.1532653399        0.8600332430       -0.9632396321
 Cd         4.3035187634       -0.4402270103        2.5247707663
 Cd         6.4920993487       -0.6517341570        6.0105277109
 Cd         0.4042807744       -0.5927875670       -7.0621305826
 Cd         2.1513956389       -1.8411259132       -3.9633769686
 Cd         4.1300618642       -2.9780487851       -0.5482590671
 Cd         6.9198627701       -3.7969968798        2.8854863367
 Cd         1.0696726794       -4.7693263300       -6.7906416767
 Cd         3.6507006051       -5.7625801886       -3.6177878921
 Cd         5.7330615288       -6.5640954993       -0.3328599872
 Cd         2.4551686912        8.1223095301       -1.1567491606
 Cd         4.4054550674        7.2897821088        1.7948849688
 Cd         2.3804233822        5.2453031458       -4.8087670419
 Cd         4.8190815426        4.7184798204       -1.4284907052
 Cd         6.7582976996        3.8401586844        2.0311647624
 Cd         2.6218243240        2.7829995840       -7.7033951918
 Cd         4.8494700478        1.7846819516       -4.5231136726
 Cd         6.7278300380        1.0650656432       -0.9631736872
 Cd         8.8867621680        0.4156387498        2.4347901899
 Cd         4.3619286042       -0.9226358785       -7.7308812710
 Cd         6.7428506883       -1.9756578664       -4.2012889649
 Cd         8.5291472664       -2.6208294240       -0.2528667837
 Se        -9.0545386278        0.2427260960        0.9183789012
 Se        -6.3726958942       -0.6565626025        4.4182713728
 Se        -3.9345892643       -1.3490381284        8.2962589880
 Se        -6.5830606629       -3.7425233886        1.3880596089
 Se        -4.5789787257       -4.2748354123        4.8596728587
 Se        -4.6121973038       -7.7762864300        1.5329166476
 Se        -6.6420294773        3.9854651673        0.4577951798
 Se        -4.0718096469        2.6208339684        3.9142091782
 Se        -1.6333635044        2.0117024817        7.9247511602
 Se        -6.7114199038        0.9827527360       -3.1654096144
 Se        -4.4069732196       -0.2111616846        0.3949604717
 Se        -2.0531052048       -1.1153458014        4.2592952940
 Se         0.4059992812       -1.5662440870        8.0648122074
 Se        -4.4159438529       -3.1298875911       -2.8045829862
 Se        -2.2374542923       -4.0915264727        0.9471965249
 Se         0.1530754522       -4.8127122234        4.4857315030
 Se        -2.4165854481       -7.4202941100       -2.0539847809
 Se        -0.0669967354       -7.8788459401        1.3095986843
 Se        -4.5518062156        7.5947724280       -0.0124936279
 Se        -1.8465852424        6.3632666204        3.5399495154
 Se         0.4036725014        5.8261760451        7.5855220303
 Se        -4.4657830992        4.5538869932       -3.3489005162
 Se        -2.0809051136        3.7152286272        0.3431324862
 Se         0.4981365649        2.6970398329        3.7285972814
 Se         2.7717442597        1.9958057601        7.6258743122
 Se        -4.6128872849        2.0746246719       -6.9048564349
 Se        -2.2787893304        0.8534411690       -3.1260951572
 Se         0.0145399900       -0.1632368195        0.3853882822
 Se         2.3129973446       -1.3189253626        3.9988858508
 Se         4.8630974070       -1.8843396477        7.7350920607
 Se        -2.0702482113       -1.9663778503       -6.4603013308
 Se        -0.0447771448       -3.1598095995       -2.8087617899
 Se         2.2323089347       -4.2313400485        0.7808971513
 Se         4.8361881772       -4.9529768434        4.0967165537
 Se        -0.7551639897       -6.2844888894       -5.8413739146
 Se         1.9249753944       -7.4787222360       -2.6075075487
 Se         4.2593953036       -8.3788843706        0.7365211829
 Se         0.0357102522        7.3685029070       -0.4911378999
 Se         2.3808007931        6.5252077612        3.1423224032
 Se         0.0436912738        4.4287170195       -3.5939188553
 Se         2.5162738124        3.6274625910       -0.0567512368
 Se         4.7725712577        2.4662071414        3.1253574341
 Se         0.0455207425        1.9296973081       -6.9703478729
 Se         2.2756813119        0.7647451390       -3.6569681159
 Se         4.3765215658       -0.2853977995       -0.0176939521
 Se         6.9676023181       -1.1294844470        3.5582975393
 Se         2.2367662021       -2.2679776303       -6.6837170821
 Se         4.3735300309       -3.1974347028       -3.2155196675
 Se         6.4330465436       -4.1116429089        0.4131176907
 Se         4.8512263959        7.5523572206       -0.7457245183
 Se         4.8772690529        4.5488719039       -4.0120821365
 Se         7.0853395843        3.5933411176       -0.6427705306
 Se         4.7813935280        1.5263097297       -7.5555177615
 Se         6.9182720056        0.6112051104       -3.7072900063
 Se         9.1066918609       -0.0628062680       -0.0921452408
  C         6.9966430346       -6.9496470619       -2.8612784934
  H         7.7649322095       -7.1224747738       -3.6684216540
  O         5.8435732698       -6.4670851652       -3.1398945852
  O         7.2879463600       -7.2737740356       -1.6931565610
  C         3.3951517097       -6.2672005686       -6.9490765698
  H         4.3444066225       -6.8936096686       -7.0753272229
  O         3.0186443934       -5.7905437909       -5.7815706002
  O         2.6173824860       -6.1684917894       -7.9237036956
  C         6.3106242109       -2.9079153991       -7.4908388231
  H         7.1299137504       -3.7048862282       -7.4466889051
  O         6.0084430570       -2.3179294799       -6.3471802976
  O         5.9389376384       -2.4738924806       -8.6121942484
  C         8.9772934242       -3.3709197476       -3.4295729161
  H         9.9250180562       -3.8774829974       -3.1826003730
  O         8.5678088622       -3.4145617333       -4.6044249540
  O         8.2713776896       -2.6966652957       -2.5198301214
  C         9.7979281790       -4.6251434266        2.1809399912
  H        10.6408655401       -5.3318691344        2.3887999993
  O         9.7467003078       -4.1800907036        0.9924574010
  O         9.0279109332       -4.5678240706        3.1869325249
  C        -2.8216727259       -8.8882849739        5.3598607385
  H        -2.4154187803       -9.9024293192        5.4343946394
  O        -1.9846610431       -7.9303628179        5.0420551331
  O        -4.0904154688       -8.7269413225        5.4041220484
  C         2.9968814303       -8.6914609842        5.2874516524
  H         2.6967725338       -9.0398269484        6.2934215078
  O         1.9991381430       -8.3574637063        4.5592193159
  O         4.2233565112       -8.6000612396        4.9147614131
  C         2.8792228338       -5.7053375725        8.2323028669
  H         2.3955873073       -6.3773024893        8.9303283437
  O         2.2187663552       -4.8085973030        7.6159059179
  O         4.1498445786       -5.9030717084        8.1530807391
  C        -2.5346755664       -5.9173662721        8.5218205738
  H        -2.0052498086       -6.7390725628        9.0096019785
  O        -1.9215014511       -5.2577882997        7.5981920235
  O        -3.6522195944       -5.5079748930        8.8922965743
  C        -6.8630361700        2.3027309876        7.3889945282
  H        -7.2086193538        3.3071349018        7.3885257928
  O        -5.6209661421        2.1588768762        7.5333313874
  O        -7.6690865166        1.3699493747        7.1998929045
  C        -4.1170468161        6.2827088013        7.2280443861
  H        -5.2418933127        6.2896177269        7.3832000201
  O        -3.5262700704        5.2288475374        6.7735655260
  O        -3.5906663820        7.4670732937        7.3177094926
  C        -6.2566706026        7.1461125907        4.0781471285
  H        -7.2111390447        7.1649409639        4.6689854642
  O        -5.8087472522        6.0476389762        3.6276509803
  O        -5.6121751164        8.2203274815        3.8483216204
  C        -9.2740558882        2.9616643276        4.4605273920
  H        -9.7855372140        3.8838940690        4.7760086716
  O        -8.0585120876        3.0117825800        4.1190920430
  O       -10.0806034147        1.9788368272        4.3920047546
  C        -9.6031672992       -3.5281566518        4.2551001963
  H       -10.5971720209       -3.6001750875        4.7566807035
  O        -9.3827933536       -2.7226889923        3.2942873430
  O        -8.6779996278       -4.3013010396        4.7627187076
  C        -5.4081405138       -6.0791248541       -6.1560780692
  H        -6.0546960796       -6.5859836395       -6.8890942905
  O        -5.3106226575       -6.5037306785       -4.9647494759
  O        -4.7978751614       -5.0925526417       -6.6850244882
  C        -7.4874232434       -7.2703981134       -1.8348237950
  H        -7.8388434959       -7.7173330376       -2.7530342297
  O        -6.3884649091       -6.5546798783       -1.8839631300
  O        -8.0712457564       -7.4405336201       -0.7455272495
  C        -9.2561180373       -3.4270585898       -2.1219244833
  H        -9.5270787848       -4.0663584857       -2.9594189931
  O        -8.1695407610       -2.7552170782       -2.2725388153
  O        -9.8238144275       -3.4937211563       -1.0089668910
  C        -6.7206455014       -1.5102485958       -7.0044854809
  H        -7.7450574417       -1.9674181007       -7.1698505571
  O        -6.3193700008       -1.2782018751       -5.7987000589
  O        -6.0627571448       -1.2633896638       -8.0151669876
  C        -1.9627903084        5.6954632451       -7.4852067667
  H        -1.7770888886        6.7764005651       -7.4923242406
  O        -2.4609655119        5.1863780064       -6.4084966738
  O        -1.7565466595        5.0398183356       -8.5279250901
  C        -1.7167778054        9.0073808992       -3.7839264796
  H        -1.3493405476        9.2660238074       -4.8465614694
  O        -1.7702878059        7.7190888292       -3.5243809349
  O        -1.9638248675        9.8891163618       -2.9404160949
  C         2.5061396017        8.6537764627       -4.1272928318
  H         2.7131102182        9.0638249498       -5.0476060874
  O         2.0944656135        7.4528501135       -4.0306906119
  O         2.6625905938        9.4108820403       -3.1548164255
  C         1.7410228469        5.3672278746       -8.1967606161
  H         1.4358383610        6.4416008070       -8.3632925476
  O         2.2781516241        5.0761753832       -7.0401936976
  O         1.5315302526        4.4829632699       -9.0171713691
  C         9.4766895596        2.6096051586        3.9000525398
  H         9.6131090334        3.4671477718        4.5843902861
  O         8.5276727369        2.7171780703        3.0489493567
  O        10.1881509494        1.5398775711        4.0326933456
  C         6.6325886921        7.0381586238        3.3282652139
  H         7.5082674956        7.1289998248        4.0070788575
  O         6.4940759443        6.1600967689        2.4464937437
  O         5.7950804561        7.9027489179        3.5808604572
  C         4.7448085639        5.8524180918        6.9352556398
  H         5.7085862008        5.7040540943        7.4370666698
  O         4.3282311542        4.9884033551        6.0812971026
  O         4.1451477408        6.9222176172        7.1367021018
  C         7.5603035259        1.7452880430        7.1877201814
  H         8.1158840311        2.6116602203        7.6593692779
  O         6.7454967694        2.0300057961        6.2242866861
  O         7.8432269929        0.5819283538        7.5890564408
     227
 i =        2, time =        2.000, E =       -43.9465562159
 Cd        -8.6170720049        0.4785857939        3.4767112457
 Cd        -5.8707216034       -0.2573769868        7.1137705977
 Cd        -8.4091511220       -2.1552260740        0.3836148123
 Cd        -6.8898197250       -3.2939731752        3.9620779956