     227
 i =        0, time =        0.000, E =       -36.2035974995
 Cd        -8.6216924880        0.4810107428        3.4775887729
 Cd        -5.8723589632       -0.2566559957        7.1151373767
 Cd        -8.4076147924       -2.1531404527        0.3867588804
 Cd        -6.8957642261       -3.2896665849        3.9600318291
 Cd        -3.6930098048       -3.6992689615        7.3819491709
 Cd        -6.4429261463       -6.2347087238        0.4622469067
 Cd        -4.3123952394       -6.8285875372        3.9039095072
 Cd        -6.1141073353        3.8626235599        2.9066844924
 Cd        -3.6048790416        2.8797284733        6.5917986711
 Cd        -6.7531255596        1.1841266196       -0.3182182747
 Cd        -4.0437606329        0.0729837467        3.0511954168
 Cd        -1.7753257667       -0.3121054857        6.8316599018
 Cd        -6.3661028473       -1.4630135273       -3.4383357626
 Cd        -4.3602814436       -3.1214810613       -0.1759283953
 Cd        -2.2424276819       -3.6242998489        3.6335413818
 Cd         0.1757294635       -3.9625201566        7.0364714760
 Cd        -4.2692200317       -5.9860442556       -3.0005266361
 Cd        -2.2482225396       -6.7972628816        0.6786391664
 Cd         0.0669003827       -7.3030327295        3.8545421700
 Cd        -4.0792754193        7.4105475565        2.4175118797
 Cd        -1.6116442377        6.4880648240        6.2478272306
 Cd        -4.3308002626        4.8127262164       -0.6762739309
 Cd        -1.8326132452        3.6694977750        3.1598212265
 Cd         0.4939817277        3.1637060931        6.7202662426
 Cd        -4.5980154021        1.9988297698       -4.0880170010
 Cd        -2.1651194586        1.0165564496       -0.4536921834
 Cd         0.1376109507       -0.0659106884        3.1336818174
 Cd         2.6419074521       -0.6636939286        6.8958319365
 Cd        -4.1515129292       -0.5348426091       -6.9620217917
 Cd        -2.2012490343       -1.8491984656       -3.4894107829
 Cd         0.0359311218       -2.8494155653       -0.0264680683
 Cd         2.4407298775       -3.8224684908        3.5289587884
 Cd         4.5907434619       -4.2169180472        6.5928471603
 Cd        -2.6321953796       -4.5685798778       -6.0773989300
 Cd        -0.3638438279       -6.1221236347       -3.0620735359
 Cd         1.9882729153       -6.8506852632       -0.0376753302
 Cd         4.3604701588       -7.5063202656        3.0981086138
 Cd        -2.4313710890        8.2839908015       -1.2010761441
 Cd         0.1210964618        6.7915494583        2.0748938605
 Cd         2.2602783261        6.3879934074        5.9824457591
 Cd        -2.2743307721        5.5403016700       -4.1096429978
 Cd         0.1552258413        4.6164378819       -0.9814446932
 Cd         2.6173372932        3.7540356816        2.4616712460
 Cd         4.3934694910        2.5024270436        5.6448470259
 Cd        -2.3839877703        3.0961459608       -7.5397423510
 Cd        -0.1308699873        1.7716472388       -4.3458913396
 Cd         2.1522040622        0.8595996928       -0.9600505658
 Cd         4.3027041934       -0.4425155449        2.5248589789
 Cd         6.4943132815       -0.6514444341        6.0110723312
 Cd         0.4032906214       -0.5920449882       -7.0625722312
 Cd         2.1504065746       -1.8410095193       -3.9631978812
 Cd         4.1282053355       -2.9764966895       -0.5499119195
 Cd         6.9189885741       -3.8001688729        2.8840486736
 Cd         1.0693858855       -4.7693596381       -6.7909688629
 Cd         3.6529341800       -5.7620820022       -3.6150795142
 Cd         5.7341856059       -6.5625995016       -0.3323817960
 Cd         2.4532379782        8.1225833618       -1.1556872380
 Cd         4.4025673150        7.2904811152        1.7928276254
 Cd         2.3800547108        5.2453457502       -4.8107637235
 Cd         4.8184663347        4.7191125514       -1.4277792117
 Cd         6.7589411702        3.8390778732        2.0295448973
 Cd         2.6210634084        2.7844913241       -7.7035228004
 Cd         4.8495943395        1.7843685348       -4.5225056138
 Cd         6.7261500983        1.0662237140       -0.9642295531
 Cd         8.8881450478        0.4141445330        2.4369093904
 Cd         4.3615782352       -0.9213178924       -7.7328888960
 Cd         6.7438649008       -1.9767569930       -4.2031112584
 Cd         8.5272445020       -2.6218905711       -0.2551455218
 Se        -9.0557725106        0.2424574140        0.9180313808
 Se        -6.3745872764       -0.6570220647        4.4225742627
 Se        -3.9358548519       -1.3506397678        8.2925868769
 Se        -6.5830028390       -3.7408669090        1.3890860046
 Se        -4.5802302415       -4.2716541219        4.8585926421
 Se        -4.6110671623       -7.7792240778        1.5343213278
 Se        -6.6407812351        3.9866809498        0.4586064126
 Se        -4.0705866514        2.6241591830        3.9150270775
 Se        -1.6315747320        2.0143859544        7.9219454430
 Se        -6.7106235468        0.9827493806       -3.1628202938
 Se        -4.4077684895       -0.2106461950        0.3970531668
 Se        -2.0534879979       -1.1190641497        4.2604482105
 Se         0.4069246601       -1.5676855049        8.0617057342
 Se        -4.4126107232       -3.1307459794       -2.8028288282
 Se        -2.2371864822       -4.0884616040        0.9473336128
 Se         0.1541797359       -4.8148952714        4.4843326207
 Se        -2.4147106009       -7.4199706225       -2.0529393442
 Se        -0.0662571417       -7.8800811154        1.3078284855
 Se        -4.5519687636        7.5920037884       -0.0122560791
 Se        -1.8482840651        6.3647212661        3.5390459072
 Se         0.4006735392        5.8241498358        7.5878867146
 Se        -4.4655945585        4.5529209660       -3.3484418515
 Se        -2.0798083538        3.7153034916        0.3451575142
 Se         0.4973892782        2.6967113851        3.7286137790
 Se         2.7724753484        1.9958260876        7.6298945277
 Se        -4.6126224962        2.0736182894       -6.9031574659
 Se        -2.2770211290        0.8531533747       -3.1284312065
 Se         0.0138865169       -0.1636477002        0.3858468104
 Se         2.3115473387       -1.3198431962        4.0017354986
 Se         4.8624545925       -1.8855864388        7.7371297607
 Se        -2.0700877949       -1.9675257511       -6.4603372509
 Se        -0.0447057629       -3.1582708631       -2.8090856920
 Se         2.2343306950       -4.2299664240        0.7817840723
 Se         4.8342987615       -4.9516929708        4.0974643468
 Se        -0.7556003326       -6.2829108386       -5.8406699955
 Se         1.9243057511       -7.4784768035       -2.6074198353
 Se         4.2543989663       -8.3809591814        0.7363809319
 Se         0.0386925703        7.3677075300       -0.4939635450
 Se         2.3791568525        6.5289221229        3.1400383851
 Se         0.0465974103        4.4270318221       -3.5936563407
 Se         2.5167269427        3.6273521599       -0.0581806204
 Se         4.7705604635        2.4670139639        3.1233546104
 Se         0.0435933033        1.9323944164       -6.9695738842
 Se         2.2733127965        0.7623703678       -3.6584263160
 Se         4.3816175435       -0.2841549253       -0.0177063702
 Se         6.9670500347       -1.1290204494        3.5565582379
 Se         2.2410869402       -2.2702007814       -6.6798205275
 Se         4.3723294721       -3.1971869108       -3.2130677403
 Se         6.4331938555       -4.1098532443        0.4136420186
 Se         4.8503033307        7.5509093293       -0.7463548497
 Se         4.8776288797        4.5477652435       -4.0091414448
 Se         7.0830986217        3.5950723552       -0.6434567968
 Se         4.7810064642        1.5273410534       -7.5566303287
 Se         6.9188050062        0.6130038217       -3.7081238627
 Se         9.1066871843       -0.0609359671       -0.0919647969
  C         6.9955771113       -6.9586634775       -2.8583426301
  H         7.7780160969       -7.1271873265       -3.6573399650
  O         5.8389952916       -6.4652991204       -3.1445809228
  O         7.2920676004       -7.2683568805       -1.6893132711
  C         3.3939431960       -6.2668607509       -6.9513074648
  H         4.3245440932       -6.8689211647       -7.0591687882
  O         3.0202466073       -5.7860511295       -5.7843136273
  O         2.6220129789       -6.1746538788       -7.9242101403
  C         6.3116555909       -2.9071154185       -7.4921130606
  H         7.0978863851       -3.7212906458       -7.4285512081
  O         6.0096715894       -2.3219711192       -6.3505932827
  O         5.9403243477       -2.4750431756       -8.6116316973
  C         8.9837561036       -3.3697375837       -3.4349055328
  H         9.9249943929       -3.8864043165       -3.1840078659
  O         8.5659407989       -3.4209184445       -4.6048832464
  O         8.2714489672       -2.6971151254       -2.5207012617
  C         9.7902109758       -4.6282247391        2.1768529346
  H        10.6284324694       -5.3337138149        2.3552924638
  O         9.7484501532       -4.1824896055        0.9942458601
  O         9.0219926648       -4.5705851174        3.1873629795
  C        -2.8252708508       -8.8894178348        5.3653894160
  H        -2.3915771747       -9.8892286280        5.4446685031
  O        -1.9808601030       -7.9304545651        5.0436955975
  O        -4.0908415257       -8.7280019527        5.4030844137
  C         3.0047406823       -8.6887063298        5.2919739424
  H         2.6853413808       -9.0312323512        6.2714246943
  O         1.9985977812       -8.3553887881        4.5599054594
  O         4.2197147413       -8.6069092298        4.9235206312
  C         2.8732291572       -5.7090624943        8.2322507888
  H         2.4095730423       -6.3582442170        8.9295273658
  O         2.2236878889       -4.8031284854        7.6183804854
  O         4.1525405945       -5.8988692439        8.1468427445
  C        -2.5324052264       -5.9090323801        8.5168983878
  H        -2.0058427467       -6.7599986745        9.0204193621
  O        -1.9189018681       -5.2527647032        7.5983339134
  O        -3.6521974131       -5.4981014961        8.8936623702
  C        -6.8661340661        2.3082426882        7.3884767521
  H        -7.2433530482        3.2983326111        7.3747512577
  O        -5.6189307919        2.1553364867        7.5292857639
  O        -7.6694328727        1.3672322100        7.2032576312
  C        -4.1128935570        6.2776012356        7.2258109093
  H        -5.2184092536        6.2949225170        7.4003980339
  O        -3.5215502414        5.2331222329        6.7794929280
  O        -3.5956064510        7.4679880815        7.3184340370
  C        -6.2584500423        7.1467273309        4.0778865765
  H        -7.2018864753        7.1620259062        4.6862261037
  O        -5.8042352338        6.0508881806        3.6277903665
  O        -5.6141473350        8.2227071687        3.8530055117
  C        -9.2670155991        2.9624473135        4.4549609073
  H        -9.7760873251        3.8307467380        4.7753730710
  O        -8.0580447847        3.0137717908        4.1153681461
  O       -10.0869615960        1.9755230626        4.3964141791
  C        -9.5997958208       -3.5202239981        4.2555074891
  H       -10.6284324694       -3.6062117458        4.7363993397
  O        -9.3836198173       -2.7271085544        3.2939504316
  O        -8.6749593009       -4.3055307223        4.7674147240
  C        -5.4063829718       -6.0836320759       -6.1576393485
  H        -6.0390997038       -6.5934387315       -6.8768176703
  O        -5.3157147411       -6.5042627408       -4.9638375967
  O        -4.7997118332       -5.0931497246       -6.6842330004
  C        -7.4812021438       -7.2683192216       -1.8337008205
  H        -7.8430239833       -7.7214409635       -2.7403108931
  O        -6.3847231004       -6.5596142310       -1.8855223803
  O        -8.0870004405       -7.4369608581       -0.7449951352
  C        -9.2637717352       -3.4248031045       -2.1287629167
  H        -9.5435102925       -4.0726156799       -2.9624854104
  O        -8.1685743898       -2.7562864935       -2.2769679175
  O        -9.8293124780       -3.4993302663       -1.0042472880
  C        -6.7198117275       -1.5155721631       -7.0057360974
  H        -7.7266400310       -1.9701098143       -7.1795729881
  O        -6.3208037730       -1.2812141421       -5.7891801227
  O        -6.0546670581       -1.2647410752       -8.0219575549
  C        -1.9610306020        5.6962737072       -7.4797868569
  H        -1.8068881661        6.7616764611       -7.4798700689
  O        -2.4613788677        5.1953402046       -6.4147373301
  O        -1.7592038190        5.0404242691       -8.5376948407
  C        -1.7153677193        9.0065729983       -3.7807068554
  H        -1.3518565997        9.2891789052       -4.8285272378
  O        -1.7735635219        7.7204009534       -3.5311974415
  O        -1.9589811591        9.8892286280       -2.9296575010
  C         2.5176986766        8.6527359013       -4.1276241396
  H         2.7356319561        9.0838176512       -5.0545617483
  O         2.0941304229        7.4607563111       -4.0382054964
  O         2.6632020791        9.4136986823       -3.1567247192
  C         1.7405814703        5.3615037054       -8.2026998584
  H         1.4592813282        6.4433815072       -8.3446733349
  O         2.2712544771        5.0744229803       -7.0359036782
  O         1.5374971892        4.4786315137       -9.0204193621
  C         9.4791869119        2.6134878200        3.9079418032
  H         9.6264681644        3.4611325178        4.5867541287
  O         8.5294682966        2.7206869475        3.0468687327
  O        10.1884170796        1.5361363159        4.0354546634
  C         6.6320899766        7.0427804887        3.3240585285
  H         7.5183451153        7.1103565644        4.0025867163
  O         6.4921259472        6.1579139584        2.4473334656
  O         5.8014508194        7.8970951585        3.5804466065
  C         4.7468288793        5.8510846562        6.9391041765
  H         5.6837062732        5.7110173508        7.4566454645
  O         4.3315486404        4.9881730889        6.0840680113
  O         4.1390624477        6.9214380767        7.1338855679
  C         7.5642974957        1.7429307679        7.1823006621
  H         8.1116275708        2.6102062210        7.6466333920
  O         6.7423080014        2.0330978891        6.2208765696
  O         7.8434776238        0.5800715711        7.5931108165
     227
 i =        1, time =        1.000, E =       -36.2165079475
 Cd        -8.6193576038        0.4796935808        3.4771564071
 Cd        -5.8715210636       -0.2571455770        7.1144225390
 Cd        -8.4082701387       -2.1541401312        0.3852266336
 Cd        -6.8927580296       -3.2918179948        3.9610857830
 Cd        -3.6901765615       -3.7004140195        7.3824526115
 Cd        -6.4420002715       -6.2358069573        0.4642273579
 Cd        -4.3123509670       -6.8296893945        3.9052225382
 Cd        -6.1164184009        3.8609530319        2.9055606760
 Cd        -3.6066475580        2.8812472104        6.5904808238
 Cd        -6.7534729899        1.1872618545       -0.3192405670
 Cd        -4.0444696289        0.0755238127        3.0502176213
 Cd        -1.7741705496       -0.3125629764        6.8336841561
 Cd        -6.3661442827       -1.4623929034       -3.4402019604
 Cd        -4.3613563003       -3.1217917901       -0.1745462612
 Cd        -2.2426299515       -3.6215531109        3.6336396743
 Cd         0.1787461183       -3.9615994988        7.0369805629
 Cd        -4.2694165413       -5.9883120815       -2.9988820568
 Cd        -2.2486798233       -6.7966981707        0.6791399008
 Cd         0.0678034577       -7.3030190841        3.8542380289
 Cd        -4.0803936495        7.4119309410        2.4182625280
 Cd        -1.6108254644        6.4879033460        6.2510399458
 Cd        -4.3326077080        4.8128190634       -0.6769895221
 Cd        -1.8304328258        3.6696066313        3.1589522047
 Cd         0.4898099095        3.1633062201        6.7206353677
 Cd        -4.5997294208        2.0001568970       -4.0890072676
 Cd        -2.1629337624        1.0181282494       -0.4517825630
 Cd         0.1384477266       -0.0681871202        3.1344593838
 Cd         2.6424315298       -0.6635630426        6.8960150786
 Cd        -4.1541694299       -0.5351604288       -6.9611442337
 Cd        -2.2032046505       -1.8491174101       -3.4900283747
 Cd         0.0358081855       -2.8475486208       -0.0251054040
 Cd         2.4397046319       -3.8215526311        3.5304820572
 Cd         4.5938128543       -4.2152274427        6.5947406752
 Cd        -2.6317199103       -4.5700277815       -6.0785844815
 Cd        -0.3609688001       -6.1211731155       -3.0631604713
 Cd         1.9863860957       -6.8524280589       -0.0374788294
 Cd         4.3578399825       -7.5051305164        3.0974456491
 Cd        -2.4320714843        8.2867304494       -1.2004230712
 Cd         0.1211457152        6.7911609460        2.0748299842
 Cd         2.2581753339        6.3879232836        5.9827506861
 Cd        -2.2740633184        5.5405596533       -4.1121625996
 Cd         0.1544520610        4.6148970102       -0.9823992750
 Cd         2.6165534908        3.7533266334        2.4609977956
 Cd         4.3939750759        2.5015769123        5.6447186962
 Cd        -2.3865160869        3.0938120701       -7.5398773036
 Cd        -0.1312665268        1.7709795388       -4.3474468658
 Cd         2.1532431391        0.8600289491       -0.9632308703
 Cd         4.3035042000       -0.4402354510        2.5247764723
 Cd         6.4920817496       -0.6517480382        6.0105145541
 Cd         0.4042801807       -0.5927849515       -7.0621296901
 Cd         2.1513765784       -1.8411167125       -3.9633662248
 Cd         4.1300399855       -2.9780433044       -0.5482524434
 Cd         6.9198523234       -3.7969940182        2.8854928305
 Cd         1.0696416244       -4.7692994777       -6.7906473526
 Cd         3.6506818719       -5.7625653215       -3.6177720786
 Cd         5.7330405412       -6.5640812765       -0.3328403253
 Cd         2.4551615012        8.1223048220       -1.1567147026
 Cd         4.4054263027        7.2897838653        1.7948711963
 Cd         2.3804194260        5.2452807062       -4.8087588220
 Cd         4.8190599929        4.7184725008       -1.4284741775
 Cd         6.7582811757        3.8401553920        2.0311594416
 Cd         2.6218238020        2.7829737045       -7.7033907733
 Cd         4.8494457011        1.7846760331       -4.5231150684
 Cd         6.7278045733        1.0650578452       -0.9631580766
 Cd         8.8867572372        0.4156232402        2.4347886370
 Cd         4.3618989336       -0.9226236780       -7.7308905798
 Cd         6.7428332039       -1.9756465686       -4.2012852994
 Cd         8.5291423512       -2.6208225377       -0.2528497437
 Se        -9.0545900053        0.2427551955        0.9183675461
 Se        -6.3727096197       -0.6565466897        4.4182781986
 Se        -3.9345806949       -1.3490184889        8.2963124352
 Se        -6.5830749729       -3.7425243357        1.3880670547
 Se        -4.5790026784       -4.2748319684        4.8596827248
 Se        -4.6122047062       -7.7763489220        1.5329013465
 Se        -6.6420792806        3.9854888801        0.4577827081
 Se        -4.0718441074        2.6208378543        3.9142247668
 Se        -1.6333586664        2.0117065476        7.9248293103
 Se        -6.7114677885        0.9827797345       -3.1654262677
 Se        -4.4069932247       -0.2111667368        0.3949457803
 Se        -2.0531151872       -1.1153496363        4.2593135235
 Se         0.4060004885       -1.5662238327        8.0648695143
 Se        -4.4159721276       -3.1299059937       -2.8045991482
 Se        -2.2374560041       -4.0915402505        0.9471977451
 Se         0.1530743135       -4.8127241601        4.4857448177
 Se        -2.4165826179       -7.4203607083       -2.0539794789
 Se        -0.0669940509       -7.8789050053        1.3095842246
 Se        -4.5518713818        7.5947881228       -0.0125099594
 Se        -1.8466161023        6.3632734394        3.5399701568
 Se         0.4036779822        5.8261766037        7.5855915408
 Se        -4.4658329400        4.5539029524       -3.3489128610
 Se        -2.0809240650        3.7152353349        0.3431430667
 Se         0.4981546465        2.6970355009        3.7286115593
 Se         2.7717562518        1.9958198829        7.6259476558
 Se        -4.6129464564        2.0746588928       -6.9048691198
 Se        -2.2788101529        0.8534606339       -3.1260952192
 Se         0.0145404484       -0.1632323025        0.3853888476
 Se         2.3129905139       -1.3189324359        3.9989083237
 Se         4.8631086162       -1.8843322506        7.7351598203
 Se        -2.0702445092       -1.9663855496       -6.4603192458
 Se        -0.0447692481       -3.1598333415       -2.8087690330
 Se         2.2323151006       -4.2313656284        0.7809055779
 Se         4.8361998721       -4.9529990129        4.0967176442
 Se        -0.7551603677       -6.2845553395       -5.8413797962
 Se         1.9249838658       -7.4787920282       -2.6075318463
 Se         4.2593909016       -8.3789447636        0.7364997051
 Se         0.0356984618        7.3685283587       -0.4911792516
 Se         2.3808222402        6.5252119930        3.1423470448
 Se         0.0436950811        4.4287419011       -3.5939341296
 Se         2.5162996961        3.6274582693       -0.0567594387
 Se         4.7725955157        2.4662065798        3.1253532055
 Se         0.0455212806        1.9297508852       -6.9703776798
 Se         2.2757113349        0.7647626300       -3.6569906091
 Se         4.3765483427       -0.2853910322       -0.0177117953
 Se         6.9676279460       -1.1294715479        3.5582906407
 Se         2.2368121642       -2.2680160103       -6.6837277659
 Se         4.3735731572       -3.1974471165       -3.2155497086
 Se         6.4330684861       -4.1116514266        0.4130922453
 Se         4.8512872411        7.5523727081       -0.7457650673
 Se         4.8773169851        4.5488973066       -4.0121092716
 Se         7.0853924448        3.5933621399       -0.6428010829
 Se         4.7814505159        1.5263292529       -7.5555259889
 Se         6.9183282032        0.6112118746       -3.7073100587
 Se         9.1067290017       -0.0627822082       -0.0921817968
  C         6.9966510108       -6.9496906418       -2.8612764741
  H         7.7649322095       -7.1224747738       -3.6684216540
  O         5.8436612018       -6.4671173120       -3.1399447623
  O         7.2880483452       -7.2738429309       -1.6932325449
  C         3.3951323069       -6.2672244247       -6.9491001551
  H         4.3444066225       -6.8936096686       -7.0753272229
  O         3.0186922495       -5.7906220834       -5.7816471355
  O         2.6174529027       -6.1685834119       -7.9237649574
  C         6.3106250543       -2.9079007774       -7.4908877741
  H         7.1299137504       -3.7048862282       -7.4466889051
  O         6.0084744997       -2.3179867587       -6.3472236095
  O         5.9390293637       -2.4739671013       -8.6122544073
  C         8.9773284004       -3.3709109342       -3.4295900543
  H         9.9250180562       -3.8774829974       -3.1826003730
  O         8.5679068607       -3.4146261546       -4.6044678171
  O         8.2714573620       -2.6966701666       -2.5198662347
  C         9.7979612458       -4.6251564025        2.1809531080
  H        10.6408655401       -5.3318691344        2.3887999993
  O         9.7467961512       -4.1801773817        0.9924832286
  O         9.0280444778       -4.5678853037        3.1869558541
  C        -2.8216859115       -8.8883195771        5.3598605112
  H        -2.4154187803       -9.9024293192        5.4343946394
  O        -1.9846748764       -7.9304299651        5.0421179745
  O        -4.0904269720       -8.7270517411        5.4041870111
  C         2.9968905604       -8.6914974824        5.2874459995
  H         2.6967725338       -9.0398269484        6.2934215078
  O         1.9991682660       -8.3575507152        4.5592628625
  O         4.2233639135       -8.6001493782        4.9148735807
  C         2.8792412477       -5.7053351787        8.2323311075
  H         2.3955873073       -6.3773024893        8.9303283437
  O         2.2187974129       -4.8086470739        7.6160047256
  O         4.1498455385       -5.9031552942        8.1531907008
  C        -2.5346840798       -5.9173621119        8.5218626575
  H        -2.0052498086       -6.7390725628        9.0096019785
  O        -1.9214867361       -5.2579094292        7.5982259059
  O        -3.6522251556       -5.5080660773        8.8923965790
  C        -6.8630433660        2.3027253325        7.3890425277
  H        -7.2086193538        3.3071349018        7.3885257928
  O        -5.6210344121        2.1589325044        7.5334118100
  O        -7.6691900512        1.3700194142        7.1999082871
  C        -4.1170354299        6.2827304025        7.2280777020
  H        -5.2418933127        6.2896177269        7.3832000201
  O        -3.5263559857        5.2288897295        6.7736254885
  O        -3.5907595872        7.4671315084        7.3177876159
  C        -6.2566870123        7.1461422449        4.0781347909
  H        -7.2111390447        7.1649409639        4.6689854642
  O        -5.8088189119        6.0476784241        3.6276985145
  O        -5.6122929508        8.2204094547        3.8483973497
  C        -9.2740932888        2.9616853887        4.4605159784
  H        -9.7855372140        3.8838940690        4.7760086716
  O        -8.0585813003        3.0118139911        4.1191336151
  O       -10.0807050466        1.9789225600        4.3920410421
  C        -9.6031928935       -3.5281711238        4.2551154080
  H       -10.5971720209       -3.6001750875        4.7566807035
  O        -9.3829132769       -2.7227137091        3.2942873427
  O        -8.6781078871       -4.3013713191        4.7627657088
  C        -5.4081400004       -6.0791497285       -6.1561046317
  H        -6.0546960796       -6.5859836395       -6.8890942905
  O        -5.3107098281       -6.5038099817       -4.9648361351
  O        -4.7979830114       -5.0925935262       -6.6850862710
  C        -7.4874393279       -7.2704380692       -1.8348170306
  H        -7.8388434959       -7.7173330376       -2.7530342297
  O        -6.3885283212       -6.5547495880       -1.8840333718
  O        -8.0713421835       -7.4406159912       -0.7455922778
  C        -9.2561546113       -3.4270447795       -2.1219362150
  H        -9.5270787848       -4.0663584857       -2.9594189931
  O        -8.1696074844       -2.7552606024       -2.2725807166
  O        -9.8239052891       -3.4937740982       -1.0090192610
  C        -6.7206602325       -1.5102247986       -7.0045117977
  H        -7.7450574417       -1.9674181007       -7.1698505571
  O        -6.3194770228       -1.2781876133       -5.7987687523
  O        -6.0628702318       -1.2634035918       -8.0152402923
  C        -1.9628174145        5.6954694610       -7.4852322920
  H        -1.7770888886        6.7764005651       -7.4923242406
  O        -2.4610129669        5.1864533257       -6.4085414992
  O        -1.7565204612        5.0399393917       -8.5280155551
  C        -1.7168044993        9.0074105963       -3.7839235880
  H        -1.3493405476        9.2660238074       -4.8465614694
  O        -1.7702413496        7.7191667493       -3.5244434219
  O        -1.9638100083        9.8892200817       -2.9405097180
  C         2.5061628987        8.6538022251       -4.1272923163
  H         2.7131102182        9.0638249498       -5.0476060874
  O         2.0944667641        7.4529339743       -4.0307032874
  O         2.6626265739        9.4109452401       -3.1549095148
  C         1.7410543365        5.3672313472       -8.1967853054
  H         1.4358383610        6.4416008070       -8.3632925476
  O         2.2781557521        5.0762721699       -7.0402878340
  O         1.5314690868        4.4830520326       -9.0172641528
  C         9.4767348044        2.6096104162        3.9000401372
  H         9.6131090334        3.4671477718        4.5843902861
  O         8.5277416203        2.7172211409        3.0489970329
  O        10.1882358788        1.5399350453        4.0327786722
  C         6.6326054617        7.0381929267        3.3282506400
  H         7.5082674956        7.1289998248        4.0070788575
  O         6.4941699981        6.1601643163        2.4465088852
  O         5.7951693889        7.9028071342        3.5809514302
  C         4.7447988740        5.8524333134        6.9352891591
  H         5.7085862008        5.7040540943        7.4370666698
  O         4.3283144590        4.9884392727        6.0813504760
  O         4.1452500771        6.9222568052        7.1367982634
  C         7.5603115579        1.7452863804        7.1877584350
  H         8.1158840311        2.6116602203        7.6593692779
  O         6.7455816906        2.0300627299        6.2243275949
  O         7.8432902096        0.5819774795        7.5891613956
     227
 i =        2, time =        2.000, E =       -36.2420518224
 Cd        -8.6170574274        0.4785227606        3.4767129767
 Cd        -5.8707059354       -0.2574571916        7.1137543925
 Cd        -8.4090839404       -2.1551973570        0.3836403053
 Cd        -6.8897969796       -3.2939752044        3.9620939070