     227
 i =        0, time =        0.000, E =       -47.3108400005
 Cd        -8.6216924880        0.4810107428        3.4775887729
 Cd        -5.8723589632       -0.2566559957        7.1151373767
 Cd        -8.4076147924       -2.1531404527        0.3867588804
 Cd        -6.8957642261       -3.2896665849        3.9600318291
 Cd        -3.6930098048       -3.6992689615        7.3819491709
 Cd        -6.4429261463       -6.2347087238        0.4622469067
 Cd        -4.3123952394       -6.8285875372        3.9039095072
 Cd        -6.1141073353        3.8626235599        2.9066844924
 Cd        -3.6048790416        2.8797284733        6.5917986711
 Cd        -6.7531255596        1.1841266196       -0.3182182747
 Cd        -4.0437606329        0.0729837467        3.0511954168
 Cd        -1.7753257667       -0.3121054857        6.8316599018
 Cd        -6.3661028473       -1.4630135273       -3.4383357626
 Cd        -4.3602814436       -3.1214810613       -0.1759283953
 Cd        -2.2424276819       -3.6242998489        3.6335413818
 Cd         0.1757294635       -3.9625201566        7.0364714760
 Cd        -4.2692200317       -5.9860442556       -3.0005266361
 Cd        -2.2482225396       -6.7972628816        0.6786391664
 Cd         0.0669003827       -7.3030327295        3.8545421700
 Cd        -4.0792754193        7.4105475565        2.4175118797
 Cd        -1.6116442377        6.4880648240        6.2478272306
 Cd        -4.3308002626        4.8127262164       -0.6762739309
 Cd        -1.8326132452        3.6694977750        3.1598212265
 Cd         0.4939817277        3.1637060931        6.7202662426
 Cd        -4.5980154021        1.9988297698       -4.0880170010
 Cd        -2.1651194586        1.0165564496       -0.4536921834
 Cd         0.1376109507       -0.0659106884        3.1336818174
 Cd         2.6419074521       -0.6636939286        6.8958319365
 Cd        -4.1515129292       -0.5348426091       -6.9620217917
 Cd        -2.2012490343       -1.8491984656       -3.4894107829
 Cd         0.0359311218       -2.8494155653       -0.0264680683
 Cd         2.4407298775       -3.8224684908        3.5289587884
 Cd         4.5907434619       -4.2169180472        6.5928471603
 Cd        -2.6321953796       -4.5685798778       -6.0773989300
 Cd        -0.3638438279       -6.1221236347       -3.0620735359
 Cd         1.9882729153       -6.8506852632       -0.0376753302
 Cd         4.3604701588       -7.5063202656        3.0981086138
 Cd        -2.4313710890        8.2839908015       -1.2010761441
 Cd         0.1210964618        6.7915494583        2.0748938605
 Cd         2.2602783261        6.3879934074        5.9824457591
 Cd        -2.2743307721        5.5403016700       -4.1096429978
 Cd         0.1552258413        4.6164378819       -0.9814446932
 Cd         2.6173372932        3.7540356816        2.4616712460
 Cd         4.3934694910        2.5024270436        5.6448470259
 Cd        -2.3839877703        3.0961459608       -7.5397423510
 Cd        -0.1308699873        1.7716472388       -4.3458913396
 Cd         2.1522040622        0.8595996928       -0.9600505658
 Cd         4.3027041934       -0.4425155449        2.5248589789
 Cd         6.4943132815       -0.6514444341        6.0110723312
 Cd         0.4032906214       -0.5920449882       -7.0625722312
 Cd         2.1504065746       -1.8410095193       -3.9631978812
 Cd         4.1282053355       -2.9764966895       -0.5499119195
 Cd         6.9189885741       -3.8001688729        2.8840486736
 Cd         1.0693858855       -4.7693596381       -6.7909688629
 Cd         3.6529341800       -5.7620820022       -3.6150795142
 Cd         5.7341856059       -6.5625995016       -0.3323817960
 Cd         2.4532379782        8.1225833618       -1.1556872380
 Cd         4.4025673150        7.2904811152        1.7928276254
 Cd         2.3800547108        5.2453457502       -4.8107637235
 Cd         4.8184663347        4.7191125514       -1.4277792117
 Cd         6.7589411702        3.8390778732        2.0295448973
 Cd         2.6210634084        2.7844913241       -7.7035228004
 Cd         4.8495943395        1.7843685348       -4.5225056138
 Cd         6.7261500983        1.0662237140       -0.9642295531
 Cd         8.8881450478        0.4141445330        2.4369093904
 Cd         4.3615782352       -0.9213178924       -7.7328888960
 Cd         6.7438649008       -1.9767569930       -4.2031112584
 Cd         8.5272445020       -2.6218905711       -0.2551455218
 Se        -9.0557725106        0.2424574140        0.9180313808
 Se        -6.3745872764       -0.6570220647        4.4225742627
 Se        -3.9358548519       -1.3506397678        8.2925868769
 Se        -6.5830028390       -3.7408669090        1.3890860046
 Se        -4.5802302415       -4.2716541219        4.8585926421
 Se        -4.6110671623       -7.7792240778        1.5343213278
 Se        -6.6407812351        3.9866809498        0.4586064126
 Se        -4.0705866514        2.6241591830        3.9150270775
 Se        -1.6315747320        2.0143859544        7.9219454430
 Se        -6.7106235468        0.9827493806       -3.1628202938
 Se        -4.4077684895       -0.2106461950        0.3970531668
 Se        -2.0534879979       -1.1190641497        4.2604482105
 Se         0.4069246601       -1.5676855049        8.0617057342
 Se        -4.4126107232       -3.1307459794       -2.8028288282
 Se        -2.2371864822       -4.0884616040        0.9473336128
 Se         0.1541797359       -4.8148952714        4.4843326207
 Se        -2.4147106009       -7.4199706225       -2.0529393442
 Se        -0.0662571417       -7.8800811154        1.3078284855
 Se        -4.5519687636        7.5920037884       -0.0122560791
 Se        -1.8482840651        6.3647212661        3.5390459072
 Se         0.4006735392        5.8241498358        7.5878867146
 Se        -4.4655945585        4.5529209660       -3.3484418515
 Se        -2.0798083538        3.7153034916        0.3451575142
 Se         0.4973892782        2.6967113851        3.7286137790
 Se         2.7724753484        1.9958260876        7.6298945277
 Se        -4.6126224962        2.0736182894       -6.9031574659
 Se        -2.2770211290        0.8531533747       -3.1284312065
 Se         0.0138865169       -0.1636477002        0.3858468104
 Se         2.3115473387       -1.3198431962        4.0017354986
 Se         4.8624545925       -1.8855864388        7.7371297607
 Se        -2.0700877949       -1.9675257511       -6.4603372509
 Se        -0.0447057629       -3.1582708631       -2.8090856920
 Se         2.2343306950       -4.2299664240        0.7817840723
 Se         4.8342987615       -4.9516929708        4.0974643468
 Se        -0.7556003326       -6.2829108386       -5.8406699955
 Se         1.9243057511       -7.4784768035       -2.6074198353
 Se         4.2543989663       -8.3809591814        0.7363809319
 Se         0.0386925703        7.3677075300       -0.4939635450
 Se         2.3791568525        6.5289221229        3.1400383851
 Se         0.0465974103        4.4270318221       -3.5936563407
 Se         2.5167269427        3.6273521599       -0.0581806204
 Se         4.7705604635        2.4670139639        3.1233546104
 Se         0.0435933033        1.9323944164       -6.9695738842
 Se         2.2733127965        0.7623703678       -3.6584263160
 Se         4.3816175435       -0.2841549253       -0.0177063702
 Se         6.9670500347       -1.1290204494        3.5565582379
 Se         2.2410869402       -2.2702007814       -6.6798205275
 Se         4.3723294721       -3.1971869108       -3.2130677403
 Se         6.4331938555       -4.1098532443        0.4136420186
 Se         4.8503033307        7.5509093293       -0.7463548497
 Se         4.8776288797        4.5477652435       -4.0091414448
 Se         7.0830986217        3.5950723552       -0.6434567968
 Se         4.7810064642        1.5273410534       -7.5566303287
 Se         6.9188050062        0.6130038217       -3.7081238627
 Se         9.1066871843       -0.0609359671       -0.0919647969
  C         6.9955771113       -6.9586634775       -2.8583426301
  H         7.7780160969       -7.1271873265       -3.6573399650
  O         5.8389952916       -6.4652991204       -3.1445809228
  O         7.2920676004       -7.2683568805       -1.6893132711
  C         3.3939431960       -6.2668607509       -6.9513074648
  H         4.3245440932       -6.8689211647       -7.0591687882
  O         3.0202466073       -5.7860511295       -5.7843136273
  O         2.6220129789       -6.1746538788       -7.9242101403
  C         6.3116555909       -2.9071154185       -7.4921130606
  H         7.0978863851       -3.7212906458       -7.4285512081
  O         6.0096715894       -2.3219711192       -6.3505932827
  O         5.9403243477       -2.4750431756       -8.6116316973
  C         8.9837561036       -3.3697375837       -3.4349055328
  H         9.9249943929       -3.8864043165       -3.1840078659
  O         8.5659407989       -3.4209184445       -4.6048832464
  O         8.2714489672       -2.6971151254       -2.5207012617
  C         9.7902109758       -4.6282247391        2.1768529346
  H        10.6284324694       -5.3337138149        2.3552924638
  O         9.7484501532       -4.1824896055        0.9942458601
  O         9.0219926648       -4.5705851174        3.1873629795
  C        -2.8252708508       -8.8894178348        5.3653894160
  H        -2.3915771747       -9.8892286280        5.4446685031
  O        -1.9808601030       -7.9304545651        5.0436955975
  O        -4.0908415257       -8.7280019527        5.4030844137
  C         3.0047406823       -8.6887063298        5.2919739424
  H         2.6853413808       -9.0312323512        6.2714246943
  O         1.9985977812       -8.3553887881        4.5599054594
  O         4.2197147413       -8.6069092298        4.9235206312
  C         2.8732291572       -5.7090624943        8.2322507888
  H         2.4095730423       -6.3582442170        8.9295273658
  O         2.2236878889       -4.8031284854        7.6183804854
  O         4.1525405945       -5.8988692439        8.1468427445
  C        -2.5324052264       -5.9090323801        8.5168983878
  H        -2.0058427467       -6.7599986745        9.0204193621
  O        -1.9189018681       -5.2527647032        7.5983339134
  O        -3.6521974131       -5.4981014961        8.8936623702
  C        -6.8661340661        2.3082426882        7.3884767521
  H        -7.2433530482        3.2983326111        7.3747512577
  O        -5.6189307919        2.1553364867        7.5292857639
  O        -7.6694328727        1.3672322100        7.2032576312
  C        -4.1128935570        6.2776012356        7.2258109093
  H        -5.2184092536        6.2949225170        7.4003980339
  O        -3.5215502414        5.2331222329        6.7794929280
  O        -3.5956064510        7.4679880815        7.3184340370
  C        -6.2584500423        7.1467273309        4.0778865765
  H        -7.2018864753        7.1620259062        4.6862261037
  O        -5.8042352338        6.0508881806        3.6277903665
  O        -5.6141473350        8.2227071687        3.8530055117
  C        -9.2670155991        2.9624473135        4.4549609073
  H        -9.7760873251        3.8307467380        4.7753730710
  O        -8.0580447847        3.0137717908        4.1153681461
  O       -10.0869615960        1.9755230626        4.3964141791
  C        -9.5997958208       -3.5202239981        4.2555074891
  H       -10.6284324694       -3.6062117458        4.7363993397
  O        -9.3836198173       -2.7271085544        3.2939504316
  O        -8.6749593009       -4.3055307223        4.7674147240
  C        -5.4063829718       -6.0836320759       -6.1576393485
  H        -6.0390997038       -6.5934387315       -6.8768176703
  O        -5.3157147411       -6.5042627408       -4.9638375967
  O        -4.7997118332       -5.0931497246       -6.6842330004
  C        -7.4812021438       -7.2683192216       -1.8337008205
  H        -7.8430239833       -7.7214409635       -2.7403108931
  O        -6.3847231004       -6.5596142310       -1.8855223803
  O        -8.0870004405       -7.4369608581       -0.7449951352
  C        -9.2637717352       -3.4248031045       -2.1287629167
  H        -9.5435102925       -4.0726156799       -2.9624854104
  O        -8.1685743898       -2.7562864935       -2.2769679175
  O        -9.8293124780       -3.4993302663       -1.0042472880
  C        -6.7198117275       -1.5155721631       -7.0057360974
  H        -7.7266400310       -1.9701098143       -7.1795729881
  O        -6.3208037730       -1.2812141421       -5.7891801227
  O        -6.0546670581       -1.2647410752       -8.0219575549
  C        -1.9610306020        5.6962737072       -7.4797868569
  H        -1.8068881661        6.7616764611       -7.4798700689
  O        -2.4613788677        5.1953402046       -6.4147373301
  O        -1.7592038190        5.0404242691       -8.5376948407
  C        -1.7153677193        9.0065729983       -3.7807068554
  H        -1.3518565997        9.2891789052       -4.8285272378
  O        -1.7735635219        7.7204009534       -3.5311974415
  O        -1.9589811591        9.8892286280       -2.9296575010
  C         2.5176986766        8.6527359013       -4.1276241396
  H         2.7356319561        9.0838176512       -5.0545617483
  O         2.0941304229        7.4607563111       -4.0382054964
  O         2.6632020791        9.4136986823       -3.1567247192
  C         1.7405814703        5.3615037054       -8.2026998584
  H         1.4592813282        6.4433815072       -8.3446733349
  O         2.2712544771        5.0744229803       -7.0359036782
  O         1.5374971892        4.4786315137       -9.0204193621
  C         9.4791869119        2.6134878200        3.9079418032
  H         9.6264681644        3.4611325178        4.5867541287
  O         8.5294682966        2.7206869475        3.0468687327
  O        10.1884170796        1.5361363159        4.0354546634
  C         6.6320899766        7.0427804887        3.3240585285
  H         7.5183451153        7.1103565644        4.0025867163
  O         6.4921259472        6.1579139584        2.4473334656
  O         5.8014508194        7.8970951585        3.5804466065
  C         4.7468288793        5.8510846562        6.9391041765
  H         5.6837062732        5.7110173508        7.4566454645
  O         4.3315486404        4.9881730889        6.0840680113
  O         4.1390624477        6.9214380767        7.1338855679
  C         7.5642974957        1.7429307679        7.1823006621
  H         8.1116275708        2.6102062210        7.6466333920
  O         6.7423080014        2.0330978891        6.2208765696
  O         7.8434776238        0.5800715711        7.5931108165
     227
 i =        1, time =        1.000, E =       -47.3266120268
 Cd        -8.6193622847        0.4797161334        3.4771580246
 Cd        -5.8715315719       -0.2571138871        7.1144258668
 Cd        -8.4082947455       -2.1541538941        0.3852151476
 Cd        -6.8927664110       -3.2918144853        3.9610815623
 Cd        -3.6901743756       -3.7004387910        7.3824793207
 Cd        -6.4420170275       -6.2358290235        0.4642028299
 Cd        -4.3123467873       -6.8297184244        3.9052381243
 Cd        -6.1164412156        3.8609643368        2.9055768865
 Cd        -3.6066720073        2.8812614621        6.5905070495
 Cd        -6.7534930454        1.1872759386       -0.3192494920
 Cd        -4.0445001169        0.0755267805        3.0502312489
 Cd        -1.7741629782       -0.3125686334        6.8337293630
 Cd        -6.3661710113       -1.4623967594       -3.4402168972
 Cd        -4.3613687543       -3.1217887889       -0.1745394230
 Cd        -2.2426371126       -3.6215566106        3.6336526517
 Cd         0.1787567545       -3.9616097833        7.0370009667
 Cd        -4.2694494512       -5.9883379104       -2.9988918244
 Cd        -2.2486825898       -6.7967247253        0.6791206367
 Cd         0.0678060496       -7.3030420398        3.8542469645
 Cd        -4.0804326052        7.4119254507        2.4182799868
 Cd        -1.6108606666        6.4878998008        6.2510657765
 Cd        -4.3326429700        4.8128280900       -0.6770057286
 Cd        -1.8304502363        3.6696182668        3.1589504768
 Cd         0.4898127063        3.1632916461        6.7206774953
 Cd        -4.5997606136        2.0001816539       -4.0890158996
 Cd        -2.1629572016        1.0181365183       -0.4517951016
 Cd         0.1384549237       -0.0681896464        3.1344789824
 Cd         2.6424252282       -0.6635614724        6.8960604895
 Cd        -4.1542169472       -0.5351629281       -6.9611500878
 Cd        -2.2032187254       -1.8491194613       -3.4900349671
 Cd         0.0358073731       -2.8475792218       -0.0251096560
 Cd         2.4397039267       -3.8215640484        3.5304851881
 Cd         4.5937986011       -4.2152455106        6.5947718922
 Cd        -2.6317421805       -4.5700439983       -6.0786011305
 Cd        -0.3609660050       -6.1212161041       -3.0631763753
 Cd         1.9863816437       -6.8524634292       -0.0374836473
 Cd         4.3578273090       -7.5051501836        3.0974624299
 Cd        -2.4320669126        8.2867369536       -1.2004634981
 Cd         0.1211461441        6.7911736163        2.0748330834
 Cd         2.2582190591        6.3879188438        5.9827824160
 Cd        -2.2740663237        5.5405738746       -4.1121858457
 Cd         0.1544481663        4.6149131035       -0.9824197309
 Cd         2.6165633565        3.7533227126        2.4609974599
 Cd         4.3940034317        2.5016016540        5.6447376587
 Cd        -2.3865226053        3.0938562066       -7.5398724607
 Cd        -0.1312664303        1.7710080409       -4.3474570119
 Cd         2.1532741935        0.8600366561       -0.9632431692
 Cd         4.3035273008       -0.4402225349        2.5247721105
 Cd         6.4921070154       -0.6517256671        6.0105372702
 Cd         0.4042769604       -0.5927894034       -7.0621320743
 Cd         2.1514028441       -1.8411318379       -3.9633815839
 Cd         4.1300722137       -2.9780500893       -0.5482620960
 Cd         6.9198676449       -3.7969964931        2.8854876113
 Cd         1.0696888016       -4.7693350961       -6.7906409268
 Cd         3.6507098768       -5.7625860566       -3.6177936270
 Cd         5.7330684207       -6.5640987819       -0.3328680940
 Cd         2.4551673462        8.1223138537       -1.1567661819
 Cd         4.4054706273        7.2897822131        1.7948911786
 Cd         2.3804247795        5.2453129926       -4.8087682164
 Cd         4.8190885006        4.7184843973       -1.4284944975
 Cd         6.7583056068        3.8401615179        2.0311669824
 Cd         2.6218187927        2.7830141190       -7.7033974269
 Cd         4.8494747961        1.7846872037       -4.5231156980
 Cd         6.7278397390        1.0650650200       -0.9631805923
 Cd         8.8867644686        0.4156464061        2.4347936108
 Cd         4.3619410079       -0.9226483627       -7.7308778346
 Cd         6.7428578386       -1.9756643313       -4.2012896173
 Cd         8.5291503006       -2.6208331129       -0.2528732905
 Se        -9.0545207835        0.2427204529        0.9183808355
 Se        -6.3726913120       -0.6565684155        4.4182697843
 Se        -3.9345887865       -1.3490444412        8.2962448581
 Se        -6.5830539206       -3.7425244023        1.3880532341
 Se        -4.5789672161       -4.2748415532        4.8596722510
 Se        -4.6121948634       -7.7762661228        1.5329208177
 Se        -6.6420131792        3.9854538545        0.4577918447
 Se        -4.0717957096        2.6208314357        3.9142064016
 Se        -1.6333609689        2.0117053012        7.9247255817
 Se        -6.7114103812        0.9827480224       -3.1653979428
 Se        -4.4069667968       -0.2111606633        0.3949660621
 Se        -2.0530979725       -1.1153409364        4.2592899737
 Se         0.4059980573       -1.5662522176        8.0647914613
 Se        -4.4159329482       -3.1298844402       -2.8045792768
 Se        -2.2374497746       -4.0915211966        0.9471969987
 Se         0.1530735051       -4.8127047625        4.4857281429
 Se        -2.4165849043       -7.4202727584       -2.0539846614
 Se        -0.0669917745       -7.8788284420        1.3096061653
 Se        -4.5517875825        7.5947658350       -0.0124943737
 Se        -1.8465804127        6.3632645388        3.5399480902
 Se         0.4036716666        5.8261726143        7.5855037897
 Se        -4.4657695577        4.5538814348       -3.3488944367
 Se        -2.0808962966        3.7152242556        0.3431274719
 Se         0.4981313632        2.6970382477        3.7285955255
 Se         2.7717388812        1.9957999885        7.6258472185
 Se        -4.6128699362        2.0746097773       -6.9048504767
 Se        -2.2787823677        0.8534318371       -3.1260961312
 Se         0.0145425623       -0.1632398446        0.3853895100
 Se         2.3130010038       -1.3189160509        3.9988817958
 Se         4.8630945321       -1.8843416857        7.7350679917
 Se        -2.0702450515       -1.9663756506       -6.4602935592
 Se        -0.0447767025       -3.1598028578       -2.8087579780
 Se         2.2323044318       -4.2313306930        0.7808942441
 Se         4.8361832011       -4.9529712789        4.0967161031
 Se        -0.7551655281       -6.2844697939       -5.8413701088
 Se         1.9249715546       -7.4786965962       -2.6075000383
 Se         4.2593949347       -8.3788668428        0.7365254867
 Se         0.0357125898        7.3684932867       -0.4911223697
 Se         2.3807959383        6.5252039067        3.1423207186
 Se         0.0436923982        4.4287064912       -3.5939152799
 Se         2.5162630142        3.6274638233       -0.0567583498
 Se         4.7725653913        2.4662032385        3.1253571500
 Se         0.0455198591        1.9296811304       -6.9703407234
 Se         2.2756715791        0.7647408026       -3.6569585427
 Se         4.3765130460       -0.2854006866       -0.0176928500
 Se         6.9675917072       -1.1294916966        3.5582951847
 Se         2.2367524721       -2.2679679652       -6.6837135945
 Se         4.3735145313       -3.1974294368       -3.2155084365
 Se         6.4330374058       -4.1116403705        0.4131213931
 Se         4.8512116711        7.5523491469       -0.7457105360
 Se         4.8772492837        4.5488613328       -4.0120773357
 Se         7.0853218699        3.5933377806       -0.6427559085
 Se         4.7813799802        1.5263075078       -7.5555126975
 Se         6.9182562804        0.6112003495       -3.7072796756
 Se         9.1066796508       -0.0628152066       -0.0921343950
  C         6.9966395668       -6.9496281145       -2.8612793714
  H         7.7649322095       -7.1224747738       -3.6684216540
  O         5.8435424029       -6.4670733906       -3.1398675642
  O         7.2879304446       -7.2737567949       -1.6931485709
  C         3.3951601455       -6.2671901966       -6.9490663156
  H         4.3444066225       -6.8936096686       -7.0753272229
  O         3.0186195096       -5.7905105944       -5.7815555024
  O         2.6173550662       -6.1684546895       -7.9236790507
  C         6.3106238443       -2.9079217562       -7.4908175404
  H         7.1299137504       -3.7048862282       -7.4466889051
  O         6.0084228755       -2.3179052556       -6.3471757947
  O         5.9389008309       -2.4738630838       -8.6121695279
  C         8.9772782175       -3.3709235795       -3.4295654649
  H         9.9250180562       -3.8774829974       -3.1826003730
  O         8.5677712781       -3.4145377651       -4.6044071487
  O         8.2713437547       -2.6966649486       -2.5198272154
  C         9.7979138025       -4.6251377851        2.1809342883
  H        10.6408655401       -5.3318691344        2.3887999993
  O         9.7466616464       -4.1800583499        0.9924513724
  O         9.0278714333       -4.5678039862        3.1869246257
  C        -2.8216669932       -8.8882699293        5.3598608374
  H        -2.4154187803       -9.9024293192        5.4343946394
  O        -1.9846584728       -7.9303320268        5.0420266021
  O        -4.0904101114       -8.7268944695        5.4040947589
  C         2.9968774608       -8.6914451158        5.2874541101
  H         2.6967725338       -9.0398269484        6.2934215078
  O         1.9991377713       -8.3574301388        4.5592023808
  O         4.2233491350       -8.6000531881        4.9147633670
  C         2.8792148279       -5.7053386132        8.2322905886
  H         2.3955873073       -6.3773024893        8.9303283437
  O         2.2187693743       -4.8085801162        7.6158649780
  O         4.1498421386       -5.9030421033        8.1530390617
  C        -2.5346718650       -5.9173680809        8.5218022768
  H        -2.0052498086       -6.7390725628        9.0096019785
  O        -1.9215020483       -5.2577385579        7.5981768343
  O        -3.6522168553       -5.5079409382        8.8922577194
  C        -6.8630330413        2.3027334464        7.3889736593
  H        -7.2086193538        3.3071349018        7.3885257928
  O        -5.6209439705        2.1588501213        7.5332997649
  O        -7.6690428270        1.3699202763        7.1998855885
  C        -4.1170517666        6.2826994097        7.2280299013
  H        -5.2418933127        6.2896177269        7.3832000201
  O        -3.5262387012        5.2288310698        6.7735412353
  O        -3.5906261679        7.4670479003        7.3176754952
  C        -6.2566634681        7.1460996979        4.0781524925
  H        -7.2111390447        7.1649409639        4.6689854642
  O        -5.8087134548        6.0476319643        3.6276328616
  O        -5.6121385042        8.2202993071        3.8483024528
  C        -9.2740396274        2.9616551707        4.4605323544
  H        -9.7855372140        3.8838940690        4.7760086716
  O        -8.0584833437        3.0117651138        4.1190737086
  O       -10.0805690361        1.9788098467        4.3919952193
  C        -9.6031561715       -3.5281503597        4.2550935826
  H       -10.5971720209       -3.6001750875        4.7566807035
  O        -9.3827369265       -2.7226768723        3.2942860713
  O        -8.6779799946       -4.3012861244        4.7627106275
  C        -5.4081407371       -6.0791140393       -6.1560665206
  H        -6.0546960796       -6.5859836395       -6.8890942905
  O        -5.3105910503       -6.5036990002       -4.9647257626
  O        -4.7978393697       -5.0925374380       -6.6849999960
  C        -7.4874162503       -7.2703807417       -1.8348267359
  H        -7.8388434959       -7.7173330376       -2.7530342297
  O        -6.3884372441       -6.5546500531       -1.8839378689
  O        -8.0712077572       -7.4405006598       -0.7455020587
  C        -9.2561021359       -3.4270645941       -2.1219193826
  H        -9.5270787848       -4.0663584857       -2.9594189931
  O        -8.1695107242       -2.7551968002       -2.2725174267
  O        -9.8237765391       -3.4937000422       -1.0089460645
  C        -6.7206390967       -1.5102589422       -7.0044740391
  H        -7.7450574417       -1.9674181007       -7.1698505571
  O        -6.3193206753       -1.2782065386       -5.7986778287
  O        -6.0627194006       -1.2633880407       -8.0151412250
  C        -1.9627785234        5.6954605425       -7.4851956690
  H        -1.7770888886        6.7764005651       -7.4923242406
  O        -2.4609456181        5.1863477796       -6.4084833256
  O        -1.7565530163        5.0397808935       -8.5278932431
  C        -1.7167661996        9.0073679876       -3.7839277367
  H        -1.3493405476        9.2660238074       -4.8465614694
  O        -1.7703052812        7.7190661639       -3.5243498764
  O        -1.9638306230        9.8890730292       -2.9403776250
  C         2.5061294728        8.6537652619       -4.1272930560
  H         2.7131102182        9.0638249498       -5.0476060874
  O         2.0944645106        7.4528198509       -4.0306800063
  O         2.6625752502        9.4108564599       -3.1547794313
  C         1.7410091560        5.3672263649       -8.1967498818
  H         1.4358383610        6.4416008070       -8.3632925476
  O         2.2781480201        5.0761337727       -7.0401774063
  O         1.5315551697        4.4829268563       -9.0171323570
  C         9.4766698884        2.6096028728        3.9000579321
  H         9.6131090334        3.4671477718        4.5843902861
  O         8.5276495871        2.7171569797        3.0489336189
  O        10.1881180859        1.5398563905        4.0326616305
  C         6.6325814011        7.0381437098        3.3282715503
  H         7.5082674956        7.1289998248        4.0070788575
  O         6.4940341476        6.1600725984        2.4464880297
  O         5.7950461182        7.9027251682        3.5808266913
  C         4.7448127768        5.8524114739        6.9352410664
  H         5.7085862008        5.7040540943        7.4370666698
  O         4.3281936636        4.9883864117        6.0812730157
  O         4.1451188391        6.9222047697        7.1366697046
  C         7.5603000338        1.7452887658        7.1877035497
  H         8.1158840311        2.6116602203        7.6593692779
  O         6.7454596003        2.0299774739        6.2242682346
  O         7.8432006009        0.5819083351        7.5890121854
     227
 i =        2, time =        2.000, E =       -47.3604699519
 Cd        -8.6170761298        0.4786129881        3.4767193245
 Cd        -5.8707478772       -0.2573303373        7.1137679091
 Cd        -8.4091821750       -2.1552523245        0.3835939613
 Cd        -6.8898260381       -3.2939629553        3.9620715625