     227
 i =        0, time =        0.000, E =       -30.1518601139
 Cd        -8.6216924880        0.4810107428        3.4775887729
 Cd        -5.8723589632       -0.2566559957        7.1151373767
 Cd        -8.4076147924       -2.1531404527        0.3867588804
 Cd        -6.8957642261       -3.2896665849        3.9600318291
 Cd        -3.6930098048       -3.6992689615        7.3819491709
 Cd        -6.4429261463       -6.2347087238        0.4622469067
 Cd        -4.3123952394       -6.8285875372        3.9039095072
 Cd        -6.1141073353        3.8626235599        2.9066844924
 Cd        -3.6048790416        2.8797284733        6.5917986711
 Cd        -6.7531255596        1.1841266196       -0.3182182747
 Cd        -4.0437606329        0.0729837467        3.0511954168
 Cd        -1.7753257667       -0.3121054857        6.8316599018
 Cd        -6.3661028473       -1.4630135273       -3.4383357626
 Cd        -4.3602814436       -3.1214810613       -0.1759283953
 Cd        -2.2424276819       -3.6242998489        3.6335413818
 Cd         0.1757294635       -3.9625201566        7.0364714760
 Cd        -4.2692200317       -5.9860442556       -3.0005266361
 Cd        -2.2482225396       -6.7972628816        0.6786391664
 Cd         0.0669003827       -7.3030327295        3.8545421700
 Cd        -4.0792754193        7.4105475565        2.4175118797
 Cd        -1.6116442377        6.4880648240        6.2478272306
 Cd        -4.3308002626        4.8127262164       -0.6762739309
 Cd        -1.8326132452        3.6694977750        3.1598212265
 Cd         0.4939817277        3.1637060931        6.7202662426
 Cd        -4.5980154021        1.9988297698       -4.0880170010
 Cd        -2.1651194586        1.0165564496       -0.4536921834
 Cd         0.1376109507       -0.0659106884        3.1336818174
 Cd         2.6419074521       -0.6636939286        6.8958319365
 Cd        -4.1515129292       -0.5348426091       -6.9620217917
 Cd        -2.2012490343       -1.8491984656       -3.4894107829
 Cd         0.0359311218       -2.8494155653       -0.0264680683
 Cd         2.4407298775       -3.8224684908        3.5289587884
 Cd         4.5907434619       -4.2169180472        6.5928471603
 Cd        -2.6321953796       -4.5685798778       -6.0773989300
 Cd        -0.3638438279       -6.1221236347       -3.0620735359
 Cd         1.9882729153       -6.8506852632       -0.0376753302
 Cd         4.3604701588       -7.5063202656        3.0981086138
 Cd        -2.4313710890        8.2839908015       -1.2010761441
 Cd         0.1210964618        6.7915494583        2.0748938605
 Cd         2.2602783261        6.3879934074        5.9824457591
 Cd        -2.2743307721        5.5403016700       -4.1096429978
 Cd         0.1552258413        4.6164378819       -0.9814446932
 Cd         2.6173372932        3.7540356816        2.4616712460
 Cd         4.3934694910        2.5024270436        5.6448470259
 Cd        -2.3839877703        3.0961459608       -7.5397423510
 Cd        -0.1308699873        1.7716472388       -4.3458913396
 Cd         2.1522040622        0.8595996928       -0.9600505658
 Cd         4.3027041934       -0.4425155449        2.5248589789
 Cd         6.4943132815       -0.6514444341        6.0110723312
 Cd         0.4032906214       -0.5920449882       -7.0625722312
 Cd         2.1504065746       -1.8410095193       -3.9631978812
 Cd         4.1282053355       -2.9764966895       -0.5499119195
 Cd         6.9189885741       -3.8001688729        2.8840486736
 Cd         1.0693858855       -4.7693596381       -6.7909688629
 Cd         3.6529341800       -5.7620820022       -3.6150795142
 Cd         5.7341856059       -6.5625995016       -0.3323817960
 Cd         2.4532379782        8.1225833618       -1.1556872380
 Cd         4.4025673150        7.2904811152        1.7928276254
 Cd         2.3800547108        5.2453457502       -4.8107637235
 Cd         4.8184663347        4.7191125514       -1.4277792117
 Cd         6.7589411702        3.8390778732        2.0295448973
 Cd         2.6210634084        2.7844913241       -7.7035228004
 Cd         4.8495943395        1.7843685348       -4.5225056138
 Cd         6.7261500983        1.0662237140       -0.9642295531
 Cd         8.8881450478        0.4141445330        2.4369093904
 Cd         4.3615782352       -0.9213178924       -7.7328888960
 Cd         6.7438649008       -1.9767569930       -4.2031112584
 Cd         8.5272445020       -2.6218905711       -0.2551455218
 Se        -9.0557725106        0.2424574140        0.9180313808
 Se        -6.3745872764       -0.6570220647        4.4225742627
 Se        -3.9358548519       -1.3506397678        8.2925868769
 Se        -6.5830028390       -3.7408669090        1.3890860046
 Se        -4.5802302415       -4.2716541219        4.8585926421
 Se        -4.6110671623       -7.7792240778        1.5343213278
 Se        -6.6407812351        3.9866809498        0.4586064126
 Se        -4.0705866514        2.6241591830        3.9150270775
 Se        -1.6315747320        2.0143859544        7.9219454430
 Se        -6.7106235468        0.9827493806       -3.1628202938
 Se        -4.4077684895       -0.2106461950        0.3970531668
 Se        -2.0534879979       -1.1190641497        4.2604482105
 Se         0.4069246601       -1.5676855049        8.0617057342
 Se        -4.4126107232       -3.1307459794       -2.8028288282
 Se        -2.2371864822       -4.0884616040        0.9473336128
 Se         0.1541797359       -4.8148952714        4.4843326207
 Se        -2.4147106009       -7.4199706225       -2.0529393442
 Se        -0.0662571417       -7.8800811154        1.3078284855
 Se        -4.5519687636        7.5920037884       -0.0122560791
 Se        -1.8482840651        6.3647212661        3.5390459072
 Se         0.4006735392        5.8241498358        7.5878867146
 Se        -4.4655945585        4.5529209660       -3.3484418515
 Se        -2.0798083538        3.7153034916        0.3451575142
 Se         0.4973892782        2.6967113851        3.7286137790
 Se         2.7724753484        1.9958260876        7.6298945277
 Se        -4.6126224962        2.0736182894       -6.9031574659
 Se        -2.2770211290        0.8531533747       -3.1284312065
 Se         0.0138865169       -0.1636477002        0.3858468104
 Se         2.3115473387       -1.3198431962        4.0017354986
 Se         4.8624545925       -1.8855864388        7.7371297607
 Se        -2.0700877949       -1.9675257511       -6.4603372509
 Se        -0.0447057629       -3.1582708631       -2.8090856920
 Se         2.2343306950       -4.2299664240        0.7817840723
 Se         4.8342987615       -4.9516929708        4.0974643468
 Se        -0.7556003326       -6.2829108386       -5.8406699955
 Se         1.9243057511       -7.4784768035       -2.6074198353
 Se         4.2543989663       -8.3809591814        0.7363809319
 Se         0.0386925703        7.3677075300       -0.4939635450
 Se         2.3791568525        6.5289221229        3.1400383851
 Se         0.0465974103        4.4270318221       -3.5936563407
 Se         2.5167269427        3.6273521599       -0.0581806204
 Se         4.7705604635        2.4670139639        3.1233546104
 Se         0.0435933033        1.9323944164       -6.9695738842
 Se         2.2733127965        0.7623703678       -3.6584263160
 Se         4.3816175435       -0.2841549253       -0.0177063702
 Se         6.9670500347       -1.1290204494        3.5565582379
 Se         2.2410869402       -2.2702007814       -6.6798205275
 Se         4.3723294721       -3.1971869108       -3.2130677403
 Se         6.4331938555       -4.1098532443        0.4136420186
 Se         4.8503033307        7.5509093293       -0.7463548497
 Se         4.8776288797        4.5477652435       -4.0091414448
 Se         7.0830986217        3.5950723552       -0.6434567968
 Se         4.7810064642        1.5273410534       -7.5566303287
 Se         6.9188050062        0.6130038217       -3.7081238627
 Se         9.1066871843       -0.0609359671       -0.0919647969
  C         6.9955771113       -6.9586634775       -2.8583426301
  H         7.7780160969       -7.1271873265       -3.6573399650
  O         5.8389952916       -6.4652991204       -3.1445809228
  O         7.2920676004       -7.2683568805       -1.6893132711
  C         3.3939431960       -6.2668607509       -6.9513074648
  H         4.3245440932       -6.8689211647       -7.0591687882
  O         3.0202466073       -5.7860511295       -5.7843136273
  O         2.6220129789       -6.1746538788       -7.9242101403
  C         6.3116555909       -2.9071154185       -7.4921130606
  H         7.0978863851       -3.7212906458       -7.4285512081
  O         6.0096715894       -2.3219711192       -6.3505932827
  O         5.9403243477       -2.4750431756       -8.6116316973
  C         8.9837561036       -3.3697375837       -3.4349055328
  H         9.9249943929       -3.8864043165       -3.1840078659
  O         8.5659407989       -3.4209184445       -4.6048832464
  O         8.2714489672       -2.6971151254       -2.5207012617
  C         9.7902109758       -4.6282247391        2.1768529346
  H        10.6284324694       -5.3337138149        2.3552924638
  O         9.7484501532       -4.1824896055        0.9942458601
  O         9.0219926648       -4.5705851174        3.1873629795
  C        -2.8252708508       -8.8894178348        5.3653894160
  H        -2.3915771747       -9.8892286280        5.4446685031
  O        -1.9808601030       -7.9304545651        5.0436955975
  O        -4.0908415257       -8.7280019527        5.4030844137
  C         3.0047406823       -8.6887063298        5.2919739424
  H         2.6853413808       -9.0312323512        6.2714246943
  O         1.9985977812       -8.3553887881        4.5599054594
  O         4.2197147413       -8.6069092298        4.9235206312
  C         2.8732291572       -5.7090624943        8.2322507888
  H         2.4095730423       -6.3582442170        8.9295273658
  O         2.2236878889       -4.8031284854        7.6183804854
  O         4.1525405945       -5.8988692439        8.1468427445
  C        -2.5324052264       -5.9090323801        8.5168983878
  H        -2.0058427467       -6.7599986745        9.0204193621
  O        -1.9189018681       -5.2527647032        7.5983339134
  O        -3.6521974131       -5.4981014961        8.8936623702
  C        -6.8661340661        2.3082426882        7.3884767521
  H        -7.2433530482        3.2983326111        7.3747512577
  O        -5.6189307919        2.1553364867        7.5292857639
  O        -7.6694328727        1.3672322100        7.2032576312
  C        -4.1128935570        6.2776012356        7.2258109093
  H        -5.2184092536        6.2949225170        7.4003980339
  O        -3.5215502414        5.2331222329        6.7794929280
  O        -3.5956064510        7.4679880815        7.3184340370
  C        -6.2584500423        7.1467273309        4.0778865765
  H        -7.2018864753        7.1620259062        4.6862261037
  O        -5.8042352338        6.0508881806        3.6277903665
  O        -5.6141473350        8.2227071687        3.8530055117
  C        -9.2670155991        2.9624473135        4.4549609073
  H        -9.7760873251        3.8307467380        4.7753730710
  O        -8.0580447847        3.0137717908        4.1153681461
  O       -10.0869615960        1.9755230626        4.3964141791
  C        -9.5997958208       -3.5202239981        4.2555074891
  H       -10.6284324694       -3.6062117458        4.7363993397
  O        -9.3836198173       -2.7271085544        3.2939504316
  O        -8.6749593009       -4.3055307223        4.7674147240
  C        -5.4063829718       -6.0836320759       -6.1576393485
  H        -6.0390997038       -6.5934387315       -6.8768176703
  O        -5.3157147411       -6.5042627408       -4.9638375967
  O        -4.7997118332       -5.0931497246       -6.6842330004
  C        -7.4812021438       -7.2683192216       -1.8337008205
  H        -7.8430239833       -7.7214409635       -2.7403108931
  O        -6.3847231004       -6.5596142310       -1.8855223803
  O        -8.0870004405       -7.4369608581       -0.7449951352
  C        -9.2637717352       -3.4248031045       -2.1287629167
  H        -9.5435102925       -4.0726156799       -2.9624854104
  O        -8.1685743898       -2.7562864935       -2.2769679175
  O        -9.8293124780       -3.4993302663       -1.0042472880
  C        -6.7198117275       -1.5155721631       -7.0057360974
  H        -7.7266400310       -1.9701098143       -7.1795729881
  O        -6.3208037730       -1.2812141421       -5.7891801227
  O        -6.0546670581       -1.2647410752       -8.0219575549
  C        -1.9610306020        5.6962737072       -7.4797868569
  H        -1.8068881661        6.7616764611       -7.4798700689
  O        -2.4613788677        5.1953402046       -6.4147373301
  O        -1.7592038190        5.0404242691       -8.5376948407
  C        -1.7153677193        9.0065729983       -3.7807068554
  H        -1.3518565997        9.2891789052       -4.8285272378
  O        -1.7735635219        7.7204009534       -3.5311974415
  O        -1.9589811591        9.8892286280       -2.9296575010
  C         2.5176986766        8.6527359013       -4.1276241396
  H         2.7356319561        9.0838176512       -5.0545617483
  O         2.0941304229        7.4607563111       -4.0382054964
  O         2.6632020791        9.4136986823       -3.1567247192
  C         1.7405814703        5.3615037054       -8.2026998584
  H         1.4592813282        6.4433815072       -8.3446733349
  O         2.2712544771        5.0744229803       -7.0359036782
  O         1.5374971892        4.4786315137       -9.0204193621
  C         9.4791869119        2.6134878200        3.9079418032
  H         9.6264681644        3.4611325178        4.5867541287
  O         8.5294682966        2.7206869475        3.0468687327
  O        10.1884170796        1.5361363159        4.0354546634
  C         6.6320899766        7.0427804887        3.3240585285
  H         7.5183451153        7.1103565644        4.0025867163
  O         6.4921259472        6.1579139584        2.4473334656
  O         5.8014508194        7.8970951585        3.5804466065
  C         4.7468288793        5.8510846562        6.9391041765
  H         5.6837062732        5.7110173508        7.4566454645
  O         4.3315486404        4.9881730889        6.0840680113
  O         4.1390624477        6.9214380767        7.1338855679
  C         7.5642974957        1.7429307679        7.1823006621
  H         8.1116275708        2.6102062210        7.6466333920
  O         6.7423080014        2.0330978891        6.2208765696
  O         7.8434776238        0.5800715711        7.5931108165
     227
 i =        1, time =        1.000, E =       -30.1634216682
 Cd        -8.6193545787        0.4796812812        3.4771572795
 Cd        -5.8715191381       -0.2571604647        7.1144186836
 Cd        -8.4082569243       -2.1541353891        0.3852309398
 Cd        -6.8927528583       -3.2918181214        3.9610881817
 Cd        -3.6901772122       -3.7004038586        7.3824363641
 Cd        -6.4419922102       -6.2357946026        0.4642398793
 Cd        -4.3123522940       -6.8296728473        3.9052171175
 Cd        -6.1164070797        3.8609470488        2.9055558789
 Cd        -3.6066369741        2.8812407686        6.5904643049
 Cd        -6.7534615838        1.1872544096       -0.3192357537
 Cd        -4.0444541543        0.0755222802        3.0502095647
 Cd        -1.7741748586       -0.3125623904        6.8336582606
 Cd        -6.3661301830       -1.4623962420       -3.4401942134
 Cd        -4.3613515628       -3.1217919910       -0.1745493044
 Cd        -2.2426256037       -3.6215536450        3.6336320974
 Cd         0.1787384300       -3.9615953457        7.0369691617
 Cd        -4.2694013603       -5.9882946937       -2.9988771588
 Cd        -2.2486818011       -6.7966815282        0.6791490911
 Cd         0.0678010239       -7.3030088253        3.8542344037
 Cd        -4.0803705281        7.4119328237        2.4182578581
 Cd        -1.6108101455        6.4879071376        6.2510234740
 Cd        -4.3325879860        4.8128149371       -0.6769801042
 Cd        -1.8304231542        3.6696016930        3.1589516191
 Cd         0.4898084811        3.1633148688        6.7206106413
 Cd        -4.5997083603        2.0001438124       -4.0890047993
 Cd        -2.1629217485        1.0181252219       -0.4517754618
 Cd         0.1384434606       -0.0681843781        3.1344479748
 Cd         2.6424348566       -0.6635633515        6.8959882780
 Cd        -4.1541449138       -0.5351587612       -6.9611407540
 Cd        -2.2031973039       -1.8491149259       -3.4900262079
 Cd         0.0358083264       -2.8475318519       -0.0251033191
 Cd         2.4397056371       -3.8215492567        3.5304791980
 Cd         4.5938197967       -4.2152185672        6.5947243176
 Cd        -2.6317100408       -4.5700171241       -6.0785749008
 Cd        -0.3609695287       -6.1211471998       -3.0631523636
 Cd         1.9863897329       -6.8524078016       -0.0374753351
 Cd         4.3578471121       -7.5051149939        3.0974357585
 Cd        -2.4320706351        8.2867282480       -1.2004034778
 Cd         0.1211455623        6.7911548940        2.0748242338
 Cd         2.2581537271        6.3879261505        5.9827289702
 Cd        -2.2740593646        5.5405538524       -4.1121512690
 Cd         0.1544540492        4.6148884589       -0.9823862741
 Cd         2.6165468436        3.7533310400        2.4610015570
 Cd         4.3939605088        2.5015640730        5.6447104011
 Cd        -2.3865093377        3.0937881936       -7.5398805695
 Cd        -0.1312661170        1.7709642633       -4.3474405710
 Cd         2.1532253520        0.8600258643       -0.9632238239
 Cd         4.3034931415       -0.4402419349        2.5247819048
 Cd         6.4920678144       -0.6517583295        6.0105051245
 Cd         0.4042787211       -0.5927830328       -7.0621291172
 Cd         2.1513612215       -1.8411098642       -3.9633577128
 Cd         4.1300228503       -2.9780387022       -0.5482472043
 Cd         6.9198442152       -3.7969913865        2.8854989229
 Cd         1.0696179223       -4.7692776714       -6.7906521658
 Cd         3.6506673447       -5.7625533777       -3.6177593827
 Cd         5.7330234995       -6.5640693180       -0.3328247767
 Cd         2.4551547067        8.1223016131       -1.1566880379
 Cd         4.4054044316        7.2897853519        1.7948605002
 Cd         2.3804161634        5.2452630138       -4.8087518035
 Cd         4.8190423534        4.7184669881       -1.4284602707
 Cd         6.7582682556        3.8401530896        2.0311552541
 Cd         2.6218218218        2.7829542307       -7.7033873180
 Cd         4.8494249703        1.7846719867       -4.5231167675
 Cd         6.7277840761        1.0650507116       -0.9631457414
 Cd         8.8867533118        0.4156113903        2.4347882071
 Cd         4.3618754218       -0.9226159221       -7.7308979837
 Cd         6.7428193634       -1.9756381435       -4.2012821993
 Cd         8.5291386181       -2.6208173540       -0.2528360727
 Se        -9.0546312436        0.2427797960        0.9183579616
 Se        -6.3727207247       -0.6565338703        4.4182837920
 Se        -3.9345727564       -1.3490023741        8.2963564041
 Se        -6.5830860405       -3.7425252958        1.3880721542
 Se        -4.5790212106       -4.2748302285        4.8596912277
 Se        -4.6122105451       -7.7763995244        1.5328886205
 Se        -6.6421195638        3.9855071968        0.4577707789
 Se        -4.0718715076        2.6208406779        3.9142379637
 Se        -1.6333536376        2.0117107524        7.9248927239
 Se        -6.7115079854        0.9828027340       -3.1654381985
 Se        -4.4070095309       -0.2111709222        0.3949340385
 Se        -2.0531223961       -1.1153518495        4.2593285320
 Se         0.4060012884       -1.5662075568        8.0649153822
 Se        -4.4159946845       -3.1299215555       -2.8046125231
 Se        -2.2374564867       -4.0915513477        0.9471989888
 Se         0.1530728500       -4.8127329183        4.4857558337
 Se        -2.4165797835       -7.4204148010       -2.0539745630
 Se        -0.0669904348       -7.8789532912        1.3095730278
 Se        -4.5519249864        7.5948002269       -0.0125247299
 Se        -1.8466425974        6.3632787375        3.5399882189
 Se         0.4036826893        5.8261759877        7.5856489828
 Se        -4.4658740743        4.5539156125       -3.3489222091
 Se        -2.0809389683        3.7152402556        0.3431512970
 Se         0.4981695595        2.6970312489        3.7286238207
 Se         2.7717655273        1.9958310144        7.6260064243
 Se        -4.6129949823        2.0746858048       -6.9048786672
 Se        -2.2788271390        0.8534758408       -3.1260954609
 Se         0.0145414525       -0.1632290024        0.3853896474
 Se         2.3129852619       -1.3189365662        3.9989273434
 Se         4.8631177439       -1.8843260311        7.7352142505
 Se        -2.0702404554       -1.9663918891       -6.4603331100
 Se        -0.0447621263       -3.1598528997       -2.8087745537
 Se         2.2323195360       -4.2313862707        0.7809123890
 Se         4.8362089520       -4.9530173189        4.0967183746
 Se        -0.7551574198       -6.2846098616       -5.8413838309
 Se         1.9249904129       -7.4788479226       -2.6075516026
 Se         4.2593867232       -8.3789940898        0.7364815076
 Se         0.0356884727        7.3685485183       -0.4912124998
 Se         2.3808402331        6.5252145279        3.1423685586
 Se         0.0436987074        4.4287615460       -3.5939468011
 Se         2.5163202372        3.6274546728       -0.0567684846
 Se         4.7726156605        2.4662052025        3.1253492975
 Se         0.0455215673        1.9297949257       -6.9704023330
 Se         2.2757358523        0.7647771674       -3.6570083792
 Se         4.3765702332       -0.2853857080       -0.0177274923
 Se         6.9676481868       -1.1294617034        3.5582837644
 Se         2.2368499724       -2.2680479299       -6.6837361942
 Se         4.3736079006       -3.1974569007       -3.2155737864
 Se         6.4330857983       -4.1116582914        0.4130703335
 Se         4.8513379061        7.5523842593       -0.7457978924
 Se         4.8773549027        4.5489172488       -4.0121321568
 Se         7.0854350960        3.5933799322       -0.6428248565
 Se         4.7814980390        1.5263460917       -7.5555317966
 Se         6.9183744169        0.6112166906       -3.7073253386
 Se         9.1067588174       -0.0627628760       -0.0922118086
  C         6.9966573514       -6.9497252851       -2.8612748688
  H         7.7649322095       -7.1224747738       -3.6684216540
  O         5.8437305208       -6.4671426269       -3.1399829354
  O         7.2881341559       -7.2738997762       -1.6932971930
  C         3.3951168829       -6.2672433888       -6.9491189040
  H         4.3444066225       -6.8936096686       -7.0753272229
  O         3.0187282988       -5.7906835282       -5.7817105459
  O         2.6175081477       -6.1686555192       -7.9238129819
  C         6.3106257247       -2.9078891541       -7.4909266872
  H         7.1299137504       -3.7048862282       -7.4466889051
  O         6.0084976777       -2.3180311685       -6.3472598354
  O         5.9391014866       -2.4740256490       -8.6123016754
  C         8.9773562044       -3.3709039281       -3.4296036780
  H         9.9250180562       -3.8774829974       -3.1826003730
  O         8.5679840985       -3.4146768633       -4.6045016303
  O         8.2715196227       -2.6966736539       -2.5198969288
  C         9.7979875318       -4.6251667175        2.1809635350
  H        10.6408655401       -5.3318691344        2.3887999993
  O         9.7468715307       -4.1802458841        0.9925038378
  O         9.0281524973       -4.5679345529        3.1869744879
  C        -2.8216963932       -8.8883470846        5.3598603304
  H        -2.4154187803       -9.9024293192        5.4343946394
  O        -1.9846857590       -7.9304819960        5.0421662422
  O        -4.0904361890       -8.7271381044        5.4042375551
  C         2.9968978183       -8.6915264961        5.2874415057
  H         2.6967725338       -9.0398269484        6.2934215078
  O         1.9991937329       -8.3576194408        4.5592967610
  O         4.2233689405       -8.6002252211        4.9149725445
  C         2.8792558857       -5.7053332757        8.2323535571
  H         2.3955873073       -6.3773024893        8.9303283437
  O         2.2188249032       -4.8086863662        7.6160824594
  O         4.1498462468       -5.9032215221        8.1532778736
  C        -2.5346908474       -5.9173588048        8.5218961115
  H        -2.0052498086       -6.7390725628        9.0096019785
  O        -1.9214739588       -5.2580039591        7.5982520177
  O        -3.6522295089       -5.5081380480        8.8924755787
  C        -6.8630490865        2.3027208369        7.3890806843
  H        -7.2086193538        3.3071349018        7.3885257928
  O        -5.6210885164        2.1589749075        7.5334751557
  O        -7.6692710509        1.3700739767        7.1999201624
  C        -4.1170263785        6.2827475742        7.2281041861
  H        -5.2418933127        6.2896177269        7.3832000201
  O        -3.5264237669        5.2289226123        6.7736727468
  O        -3.5908321336        7.4671769246        7.3178488029
  C        -6.2567000569        7.1461658182        4.0781249833
  H        -7.2111390447        7.1649409639        4.6689854642
  O        -5.8088742664        6.0477107713        3.6277352473
  O        -5.6123882275        8.2204753567        3.8484590867
  C        -9.2741230200        2.9617021311        4.4605069053
  H        -9.7855372140        3.8838940690        4.7760086716
  O        -8.0586352129        3.0118375241        4.1191652666
  O       -10.0807864415        1.9789914475        4.3920703049
  C        -9.6032132394       -3.5281826282        4.2551275003
  H       -10.5971720209       -3.6001750875        4.7566807035
  O        -9.3830060269       -2.7227329111        3.2942869467
  O        -8.6781982008       -4.3014296060        4.7628049631
  C        -5.4081395922       -6.0791695022       -6.1561257473
  H        -6.0546960796       -6.5859836395       -6.8890942905
  O        -5.3107792251       -6.5038729397       -4.9649061351
  O        -4.7980689604       -5.0926260323       -6.6851351361
  C        -7.4874521141       -7.2704698317       -1.8348116533
  H        -7.8388434959       -7.7173330376       -2.7530342297
  O        -6.3885769995       -6.5548042649       -1.8840890291
  O        -8.0714181052       -7.4406809283       -0.7456435163
  C        -9.2561836855       -3.4270338012       -2.1219455409
  H        -9.5270787848       -4.0663584857       -2.9594189931
  O        -8.1696589773       -2.7552936975       -2.2726129945
  O        -9.8239765217       -3.4938153941       -1.0090600665
  C        -6.7206719428       -1.5102058812       -7.0045327179
  H        -7.7450574417       -1.9674181007       -7.1698505571
  O        -6.3195600727       -1.2781755934       -5.7988234623
  O        -6.0629606780       -1.2634148953       -8.0152987654
  C        -1.9628389621        5.6954744023       -7.4852525831
  H        -1.7770888886        6.7764005651       -7.4923242406
  O        -2.4610505736        5.1865120885       -6.4085771952
  O        -1.7564991463        5.0400369452       -8.5280880180
  C        -1.7168257193        9.0074342037       -3.7839212894
  H        -1.3493405476        9.2660238074       -4.8465614694
  O        -1.7702047806        7.7192293150       -3.5244909865
  O        -1.9637984445        9.8893014274       -2.9405830910
  C         2.5061814183        8.6538227046       -4.1272919065
  H         2.7131102182        9.0638249498       -5.0476060874
  O         2.0944678678        7.4529999868       -4.0307122394
  O         2.6626550381        9.4109946514       -3.1549824525
  C         1.7410793688        5.3672341076       -8.1968049319
  H         1.4358383610        6.4416008070       -8.3632925476
  O         2.2781590265        5.0763473167       -7.0403663571
  O         1.5314210240        4.4831215349       -9.0173369369
  C         9.4767707712        2.6096145957        3.9000302780
  H         9.6131090334        3.4671477718        4.5843902861
  O         8.5277963592        2.7172539042        3.0490344746
  O        10.1883029517        1.5399804785        4.0328461198
  C         6.6326187925        7.0382201955        3.3282390546
  H         7.5082674956        7.1289998248        4.0070788575
  O         6.4942430744        6.1602178276        2.4465201672
  O         5.7952396372        7.9028530879        3.5810232820
  C         4.7447911711        5.8524454136        6.9353158050
  H         5.7085862008        5.7040540943        7.4370666698
  O         4.3283788348        4.9884667630        6.0813922211
  O         4.1453329051        6.9222882789        7.1368755521
  C         7.5603179429        1.7452850588        7.1877888443
  H         8.1158840311        2.6116602203        7.6593692779
  O         6.7456471221        2.0301063134        6.2243593244
  O         7.8433394661        0.5820157625        7.5892436986
     227
 i =        2, time =        2.000, E =       -30.1850888821
 Cd        -8.6170453620        0.4784735420        3.4767165370
 Cd        -5.8706982261       -0.2575167996        7.1137388474
 Cd        -8.4090311348       -2.1551783519        0.3836578121
 Cd        -6.8897787570       -3.2939746968        3.9621064805