     227
 i =        0, time =        0.000, E =       -13.2062793779
 Cd        -8.6216924880        0.4810107428        3.4775887729
 Cd        -5.8723589632       -0.2566559957        7.1151373767
 Cd        -8.4076147924       -2.1531404527        0.3867588804
 Cd        -6.8957642261       -3.2896665849        3.9600318291
 Cd        -3.6930098048       -3.6992689615        7.3819491709
 Cd        -6.4429261463       -6.2347087238        0.4622469067
 Cd        -4.3123952394       -6.8285875372        3.9039095072
 Cd        -6.1141073353        3.8626235599        2.9066844924
 Cd        -3.6048790416        2.8797284733        6.5917986711
 Cd        -6.7531255596        1.1841266196       -0.3182182747
 Cd        -4.0437606329        0.0729837467        3.0511954168
 Cd        -1.7753257667       -0.3121054857        6.8316599018
 Cd        -6.3661028473       -1.4630135273       -3.4383357626
 Cd        -4.3602814436       -3.1214810613       -0.1759283953
 Cd        -2.2424276819       -3.6242998489        3.6335413818
 Cd         0.1757294635       -3.9625201566        7.0364714760
 Cd        -4.2692200317       -5.9860442556       -3.0005266361
 Cd        -2.2482225396       -6.7972628816        0.6786391664
 Cd         0.0669003827       -7.3030327295        3.8545421700
 Cd        -4.0792754193        7.4105475565        2.4175118797
 Cd        -1.6116442377        6.4880648240        6.2478272306
 Cd        -4.3308002626        4.8127262164       -0.6762739309
 Cd        -1.8326132452        3.6694977750        3.1598212265
 Cd         0.4939817277        3.1637060931        6.7202662426
 Cd        -4.5980154021        1.9988297698       -4.0880170010
 Cd        -2.1651194586        1.0165564496       -0.4536921834
 Cd         0.1376109507       -0.0659106884        3.1336818174
 Cd         2.6419074521       -0.6636939286        6.8958319365
 Cd        -4.1515129292       -0.5348426091       -6.9620217917
 Cd        -2.2012490343       -1.8491984656       -3.4894107829
 Cd         0.0359311218       -2.8494155653       -0.0264680683
 Cd         2.4407298775       -3.8224684908        3.5289587884
 Cd         4.5907434619       -4.2169180472        6.5928471603
 Cd        -2.6321953796       -4.5685798778       -6.0773989300
 Cd        -0.3638438279       -6.1221236347       -3.0620735359
 Cd         1.9882729153       -6.8506852632       -0.0376753302
 Cd         4.3604701588       -7.5063202656        3.0981086138
 Cd        -2.4313710890        8.2839908015       -1.2010761441
 Cd         0.1210964618        6.7915494583        2.0748938605
 Cd         2.2602783261        6.3879934074        5.9824457591
 Cd        -2.2743307721        5.5403016700       -4.1096429978
 Cd         0.1552258413        4.6164378819       -0.9814446932
 Cd         2.6173372932        3.7540356816        2.4616712460
 Cd         4.3934694910        2.5024270436        5.6448470259
 Cd        -2.3839877703        3.0961459608       -7.5397423510
 Cd        -0.1308699873        1.7716472388       -4.3458913396
 Cd         2.1522040622        0.8595996928       -0.9600505658
 Cd         4.3027041934       -0.4425155449        2.5248589789
 Cd         6.4943132815       -0.6514444341        6.0110723312
 Cd         0.4032906214       -0.5920449882       -7.0625722312
 Cd         2.1504065746       -1.8410095193       -3.9631978812
 Cd         4.1282053355       -2.9764966895       -0.5499119195
 Cd         6.9189885741       -3.8001688729        2.8840486736
 Cd         1.0693858855       -4.7693596381       -6.7909688629
 Cd         3.6529341800       -5.7620820022       -3.6150795142
 Cd         5.7341856059       -6.5625995016       -0.3323817960
 Cd         2.4532379782        8.1225833618       -1.1556872380
 Cd         4.4025673150        7.2904811152        1.7928276254
 Cd         2.3800547108        5.2453457502       -4.8107637235
 Cd         4.8184663347        4.7191125514       -1.4277792117
 Cd         6.7589411702        3.8390778732        2.0295448973
 Cd         2.6210634084        2.7844913241       -7.7035228004
 Cd         4.8495943395        1.7843685348       -4.5225056138
 Cd         6.7261500983        1.0662237140       -0.9642295531
 Cd         8.8881450478        0.4141445330        2.4369093904
 Cd         4.3615782352       -0.9213178924       -7.7328888960
 Cd         6.7438649008       -1.9767569930       -4.2031112584
 Cd         8.5272445020       -2.6218905711       -0.2551455218
 Se        -9.0557725106        0.2424574140        0.9180313808
 Se        -6.3745872764       -0.6570220647        4.4225742627
 Se        -3.9358548519       -1.3506397678        8.2925868769
 Se        -6.5830028390       -3.7408669090        1.3890860046
 Se        -4.5802302415       -4.2716541219        4.8585926421
 Se        -4.6110671623       -7.7792240778        1.5343213278
 Se        -6.6407812351        3.9866809498        0.4586064126
 Se        -4.0705866514        2.6241591830        3.9150270775
 Se        -1.6315747320        2.0143859544        7.9219454430
 Se        -6.7106235468        0.9827493806       -3.1628202938
 Se        -4.4077684895       -0.2106461950        0.3970531668
 Se        -2.0534879979       -1.1190641497        4.2604482105
 Se         0.4069246601       -1.5676855049        8.0617057342
 Se        -4.4126107232       -3.1307459794       -2.8028288282
 Se        -2.2371864822       -4.0884616040        0.9473336128
 Se         0.1541797359       -4.8148952714        4.4843326207
 Se        -2.4147106009       -7.4199706225       -2.0529393442
 Se        -0.0662571417       -7.8800811154        1.3078284855
 Se        -4.5519687636        7.5920037884       -0.0122560791
 Se        -1.8482840651        6.3647212661        3.5390459072
 Se         0.4006735392        5.8241498358        7.5878867146
 Se        -4.4655945585        4.5529209660       -3.3484418515
 Se        -2.0798083538        3.7153034916        0.3451575142
 Se         0.4973892782        2.6967113851        3.7286137790
 Se         2.7724753484        1.9958260876        7.6298945277
 Se        -4.6126224962        2.0736182894       -6.9031574659
 Se        -2.2770211290        0.8531533747       -3.1284312065
 Se         0.0138865169       -0.1636477002        0.3858468104
 Se         2.3115473387       -1.3198431962        4.0017354986
 Se         4.8624545925       -1.8855864388        7.7371297607
 Se        -2.0700877949       -1.9675257511       -6.4603372509
 Se        -0.0447057629       -3.1582708631       -2.8090856920
 Se         2.2343306950       -4.2299664240        0.7817840723
 Se         4.8342987615       -4.9516929708        4.0974643468
 Se        -0.7556003326       -6.2829108386       -5.8406699955
 Se         1.9243057511       -7.4784768035       -2.6074198353
 Se         4.2543989663       -8.3809591814        0.7363809319
 Se         0.0386925703        7.3677075300       -0.4939635450
 Se         2.3791568525        6.5289221229        3.1400383851
 Se         0.0465974103        4.4270318221       -3.5936563407
 Se         2.5167269427        3.6273521599       -0.0581806204
 Se         4.7705604635        2.4670139639        3.1233546104
 Se         0.0435933033        1.9323944164       -6.9695738842
 Se         2.2733127965        0.7623703678       -3.6584263160
 Se         4.3816175435       -0.2841549253       -0.0177063702
 Se         6.9670500347       -1.1290204494        3.5565582379
 Se         2.2410869402       -2.2702007814       -6.6798205275
 Se         4.3723294721       -3.1971869108       -3.2130677403
 Se         6.4331938555       -4.1098532443        0.4136420186
 Se         4.8503033307        7.5509093293       -0.7463548497
 Se         4.8776288797        4.5477652435       -4.0091414448
 Se         7.0830986217        3.5950723552       -0.6434567968
 Se         4.7810064642        1.5273410534       -7.5566303287
 Se         6.9188050062        0.6130038217       -3.7081238627
 Se         9.1066871843       -0.0609359671       -0.0919647969
  C         6.9955771113       -6.9586634775       -2.8583426301
  H         7.7780160969       -7.1271873265       -3.6573399650
  O         5.8389952916       -6.4652991204       -3.1445809228
  O         7.2920676004       -7.2683568805       -1.6893132711
  C         3.3939431960       -6.2668607509       -6.9513074648
  H         4.3245440932       -6.8689211647       -7.0591687882
  O         3.0202466073       -5.7860511295       -5.7843136273
  O         2.6220129789       -6.1746538788       -7.9242101403
  C         6.3116555909       -2.9071154185       -7.4921130606
  H         7.0978863851       -3.7212906458       -7.4285512081
  O         6.0096715894       -2.3219711192       -6.3505932827
  O         5.9403243477       -2.4750431756       -8.6116316973
  C         8.9837561036       -3.3697375837       -3.4349055328
  H         9.9249943929       -3.8864043165       -3.1840078659
  O         8.5659407989       -3.4209184445       -4.6048832464
  O         8.2714489672       -2.6971151254       -2.5207012617
  C         9.7902109758       -4.6282247391        2.1768529346
  H        10.6284324694       -5.3337138149        2.3552924638
  O         9.7484501532       -4.1824896055        0.9942458601
  O         9.0219926648       -4.5705851174        3.1873629795
  C        -2.8252708508       -8.8894178348        5.3653894160
  H        -2.3915771747       -9.8892286280        5.4446685031
  O        -1.9808601030       -7.9304545651        5.0436955975
  O        -4.0908415257       -8.7280019527        5.4030844137
  C         3.0047406823       -8.6887063298        5.2919739424
  H         2.6853413808       -9.0312323512        6.2714246943
  O         1.9985977812       -8.3553887881        4.5599054594
  O         4.2197147413       -8.6069092298        4.9235206312
  C         2.8732291572       -5.7090624943        8.2322507888
  H         2.4095730423       -6.3582442170        8.9295273658
  O         2.2236878889       -4.8031284854        7.6183804854
  O         4.1525405945       -5.8988692439        8.1468427445
  C        -2.5324052264       -5.9090323801        8.5168983878
  H        -2.0058427467       -6.7599986745        9.0204193621
  O        -1.9189018681       -5.2527647032        7.5983339134
  O        -3.6521974131       -5.4981014961        8.8936623702
  C        -6.8661340661        2.3082426882        7.3884767521
  H        -7.2433530482        3.2983326111        7.3747512577
  O        -5.6189307919        2.1553364867        7.5292857639
  O        -7.6694328727        1.3672322100        7.2032576312
  C        -4.1128935570        6.2776012356        7.2258109093
  H        -5.2184092536        6.2949225170        7.4003980339
  O        -3.5215502414        5.2331222329        6.7794929280
  O        -3.5956064510        7.4679880815        7.3184340370
  C        -6.2584500423        7.1467273309        4.0778865765
  H        -7.2018864753        7.1620259062        4.6862261037
  O        -5.8042352338        6.0508881806        3.6277903665
  O        -5.6141473350        8.2227071687        3.8530055117
  C        -9.2670155991        2.9624473135        4.4549609073
  H        -9.7760873251        3.8307467380        4.7753730710
  O        -8.0580447847        3.0137717908        4.1153681461
  O       -10.0869615960        1.9755230626        4.3964141791
  C        -9.5997958208       -3.5202239981        4.2555074891
  H       -10.6284324694       -3.6062117458        4.7363993397
  O        -9.3836198173       -2.7271085544        3.2939504316
  O        -8.6749593009       -4.3055307223        4.7674147240
  C        -5.4063829718       -6.0836320759       -6.1576393485
  H        -6.0390997038       -6.5934387315       -6.8768176703
  O        -5.3157147411       -6.5042627408       -4.9638375967
  O        -4.7997118332       -5.0931497246       -6.6842330004
  C        -7.4812021438       -7.2683192216       -1.8337008205
  H        -7.8430239833       -7.7214409635       -2.7403108931
  O        -6.3847231004       -6.5596142310       -1.8855223803
  O        -8.0870004405       -7.4369608581       -0.7449951352
  C        -9.2637717352       -3.4248031045       -2.1287629167
  H        -9.5435102925       -4.0726156799       -2.9624854104
  O        -8.1685743898       -2.7562864935       -2.2769679175
  O        -9.8293124780       -3.4993302663       -1.0042472880
  C        -6.7198117275       -1.5155721631       -7.0057360974
  H        -7.7266400310       -1.9701098143       -7.1795729881
  O        -6.3208037730       -1.2812141421       -5.7891801227
  O        -6.0546670581       -1.2647410752       -8.0219575549
  C        -1.9610306020        5.6962737072       -7.4797868569
  H        -1.8068881661        6.7616764611       -7.4798700689
  O        -2.4613788677        5.1953402046       -6.4147373301
  O        -1.7592038190        5.0404242691       -8.5376948407
  C        -1.7153677193        9.0065729983       -3.7807068554
  H        -1.3518565997        9.2891789052       -4.8285272378
  O        -1.7735635219        7.7204009534       -3.5311974415
  O        -1.9589811591        9.8892286280       -2.9296575010
  C         2.5176986766        8.6527359013       -4.1276241396
  H         2.7356319561        9.0838176512       -5.0545617483
  O         2.0941304229        7.4607563111       -4.0382054964
  O         2.6632020791        9.4136986823       -3.1567247192
  C         1.7405814703        5.3615037054       -8.2026998584
  H         1.4592813282        6.4433815072       -8.3446733349
  O         2.2712544771        5.0744229803       -7.0359036782
  O         1.5374971892        4.4786315137       -9.0204193621
  C         9.4791869119        2.6134878200        3.9079418032
  H         9.6264681644        3.4611325178        4.5867541287
  O         8.5294682966        2.7206869475        3.0468687327
  O        10.1884170796        1.5361363159        4.0354546634
  C         6.6320899766        7.0427804887        3.3240585285
  H         7.5183451153        7.1103565644        4.0025867163
  O         6.4921259472        6.1579139584        2.4473334656
  O         5.8014508194        7.8970951585        3.5804466065
  C         4.7468288793        5.8510846562        6.9391041765
  H         5.6837062732        5.7110173508        7.4566454645
  O         4.3315486404        4.9881730889        6.0840680113
  O         4.1390624477        6.9214380767        7.1338855679
  C         7.5642974957        1.7429307679        7.1823006621
  H         8.1116275708        2.6102062210        7.6466333920
  O         6.7423080014        2.0330978891        6.2208765696
  O         7.8434776238        0.5800715711        7.5931108165
     227
 i =        1, time =        1.000, E =       -13.2194696407
 Cd        -8.6193312406        0.4796257161        3.4772170565
 Cd        -5.8716457653       -0.2571517100        7.1143546594
 Cd        -8.4082378567       -2.1542042584        0.3851851813
 Cd        -6.8926958467       -3.2917508538        3.9611025024
 Cd        -3.6901854486       -3.7004622953        7.3823396255
 Cd        -6.4420133421       -6.2357484506        0.4642754350
 Cd        -4.3123353669       -6.8296033468        3.9053075452
 Cd        -6.1164287459        3.8609277475        2.9056719493
 Cd        -3.6066975394        2.8812617273        6.5903558836
 Cd        -6.7534303805        1.1872556566       -0.3192315290
 Cd        -4.0444682823        0.0755183821        3.0501658819
 Cd        -1.7741860865       -0.3126462552        6.8335646018
 Cd        -6.3661275550       -1.4625849602       -3.4401785442
 Cd        -4.3614207146       -3.1217444295       -0.1745316683
 Cd        -2.2426028234       -3.6216497847        3.6336032776
 Cd         0.1786373749       -3.9616272193        7.0369448066
 Cd        -4.2694403120       -5.9881417407       -2.9988710662
 Cd        -2.2488038134       -6.7965832495        0.6791242845
 Cd         0.0677520073       -7.3030697446        3.8542661942
 Cd        -4.0802288875        7.4119140662        2.4183817000
 Cd        -1.6108710124        6.4880048304        6.2509049930
 Cd        -4.3325378134        4.8128390522       -0.6769457814
 Cd        -1.8304006292        3.6696370440        3.1589043527
 Cd         0.4898094431        3.1633563869        6.7204961812
 Cd        -4.5995374845        2.0001312578       -4.0890841112
 Cd        -2.1629316123        1.0181790203       -0.4517512186
 Cd         0.1384223050       -0.0681272595        3.1344063019
 Cd         2.6424378290       -0.6635416617        6.8958636658
 Cd        -4.1541082455       -0.5351358215       -6.9611283694
 Cd        -2.2031980188       -1.8490603701       -3.4900746747
 Cd         0.0357980479       -2.8475027033       -0.0251047840
 Cd         2.4397339339       -3.8216470614        3.5304396980
 Cd         4.5938325035       -4.2152212562        6.5947000632
 Cd        -2.6317573459       -4.5699371048       -6.0785343181
 Cd        -0.3609424437       -6.1210065953       -3.0631518019
 Cd         1.9864409059       -6.8523378138       -0.0374408354
 Cd         4.3578808248       -7.5049118567        3.0973609903
 Cd        -2.4319760431        8.2867777125       -1.2004151550
 Cd         0.1211444464        6.7911838042        2.0746786086
 Cd         2.2581452360        6.3879655413        5.9825205779
 Cd        -2.2739851915        5.5406038248       -4.1121644175
 Cd         0.1544526543        4.6148785196       -0.9822982767
 Cd         2.6164938952        3.7534248804        2.4611341835
 Cd         4.3939519717        2.5015487610        5.6447637505
 Cd        -2.3864022612        3.0936964644       -7.5399274531
 Cd        -0.1312557294        1.7709424192       -4.3474027786
 Cd         2.1531607921        0.8600669842       -0.9632041026
 Cd         4.3035320385       -0.4402372222        2.5248999957
 Cd         6.4920333929       -0.6517314972        6.0105771961
 Cd         0.4041661472       -0.5927993198       -7.0621738434
 Cd         2.1512936632       -1.8411479194       -3.9633334450
 Cd         4.1300037328       -2.9779982184       -0.5482418071
 Cd         6.9198221569       -3.7969372514        2.8856296249
 Cd         1.0695968881       -4.7691242815       -6.7907225157
 Cd         3.6506568330       -5.7625104683       -3.6176838616
 Cd         5.7329056158       -6.5639603567       -0.3327577086
 Cd         2.4550197077        8.1223585056       -1.1566596703
 Cd         4.4054105963        7.2898266664        1.7948198198
 Cd         2.3804058608        5.2452138860       -4.8086607388
 Cd         4.8189319350        4.7184973203       -1.4283337975
 Cd         6.7582564904        3.8401891208        2.0311359457
 Cd         2.6216836934        2.7829652810       -7.7033909770
 Cd         4.8492206369        1.7847348218       -4.5231970808
 Cd         6.7276956037        1.0649232483       -0.9631181318
 Cd         8.8867548482        0.4155796712        2.4348439954
 Cd         4.3617898625       -0.9227684542       -7.7309472677
 Cd         6.7427578684       -1.9756404338       -4.2012452060
 Cd         8.5291605387       -2.6208103401       -0.2527722149
 Se        -9.0549211679        0.2430523530        0.9182296469
 Se        -6.3727868924       -0.6564716879        4.4183448407
 Se        -3.9344554328       -1.3489067878        8.2967822963
 Se        -6.5830948456       -3.7425887373        1.3879948830
 Se        -4.5790607002       -4.2749659707        4.8598328891
 Se        -4.6122707197       -7.7767795212        1.5327907408
 Se        -6.6424213152        3.9855512917        0.4574899503
 Se        -4.0719795086        2.6208228102        3.9143863897
 Se        -1.6332198407        2.0118562121        7.9253428389
 Se        -6.7119720471        0.9830787024       -3.1653523743
 Se        -4.4071228527       -0.2112255551        0.3948725173
 Se        -2.0530623916       -1.1152778625        4.2594438315
 Se         0.4059783045       -1.5661488457        8.0652091879
 Se        -4.4160995246       -3.1301122796       -2.8047609407
 Se        -2.2373515816       -4.0915969707        0.9472250258
 Se         0.1530019816       -4.8127020223        4.4858475991
 Se        -2.4165421251       -7.4208167714       -2.0539124624
 Se        -0.0668199124       -7.8793523191        1.3095757850
 Se        -4.5523629771        7.5948846101       -0.0127842354
 Se        -1.8469341273        6.3633569185        3.5402433885
 Se         0.4037351637        5.8261236590        7.5861796089
 Se        -4.4662403639        4.5540205045       -3.3489497102
 Se        -2.0809567720        3.7152185792        0.3431669092
 Se         0.4982847389        2.6969253450        3.7287898237
 Se         2.7718013090        1.9958779830        7.6263468405
 Se        -4.6133864703        2.0747804661       -6.9049393629
 Se        -2.2789272920        0.8534902412       -3.1261293488
 Se         0.0146221131       -0.1632468303        0.3854316453
 Se         2.3129919620       -1.3187744598        3.9991492293
 Se         4.8632224964       -1.8842868327        7.7355625595
 Se        -2.0700955748       -1.9664423066       -6.4604089104
 Se        -0.0446314998       -3.1600122167       -2.8087777150
 Se         2.2322825466       -4.2314909489        0.7809554765
 Se         4.8362617715       -4.9531943454        4.0967350309
 Se        -0.7551675938       -6.2850705891       -5.8413983783
 Se         1.9250131597       -7.4791833385       -2.6077036119
 Se         4.2593304201       -8.3794297810        0.7362968305
 Se         0.0355958133        7.3686768452       -0.4913512196
 Se         2.3809995427        6.5252063684        3.1426823098
 Se         0.0437908254        4.4288157747       -3.5940746480
 Se         2.5163924415        3.6274307136       -0.0570825837
 Se         4.7728016763        2.4660774789        3.1252752969
 Se         0.0454951312        1.9300881135       -6.9706533494
 Se         2.2758944022        0.7649147443       -3.6570701418
 Se         4.3767182594       -0.2853647584       -0.0179515605
 Se         6.9677331491       -1.1294856258        3.5581357738
 Se         2.2371137930       -2.2683257545       -6.6838296438
 Se         4.3737910090       -3.1974784418       -3.2156879854
 Se         6.4331060345       -4.1117242414        0.4128133474
 Se         4.8518282424        7.5524235445       -0.7459980800
 Se         4.8775201133        4.5490137130       -4.0124124497
 Se         7.0857438748        3.5936120669       -0.6428647808
 Se         4.7819593959        1.5265756276       -7.5555501710
 Se         6.9187714649        0.6112024507       -3.7073475162
 Se         9.1070110959       -0.0626536769       -0.0924357328
  C         6.9966702506       -6.9497957630       -2.8612716031
  H         7.7649322095       -7.1224747738       -3.6684216540
  O         5.8444119531       -6.4674307270       -3.1399802388
  O         7.2893583513       -7.2744997070       -1.6943542345
  C         3.3950855045       -6.2672819691       -6.9491570464
  H         4.3444066225       -6.8936096686       -7.0753272229
  O         3.0188677535       -5.7909988172       -5.7825984789
  O         2.6179114832       -6.1690580761       -7.9241204386
  C         6.3106270886       -2.9078655077       -7.4910058514
  H         7.1299137504       -3.7048862282       -7.4466889051
  O         6.0084688267       -2.3182993509       -6.3479926184
  O         5.9395307794       -2.4744195804       -8.6125527082
  C         8.9774127683       -3.3708896749       -3.4296313940
  H         9.9250180562       -3.8774829974       -3.1826003730
  O         8.5685135606       -3.4150752043       -4.6046504762
  O         8.2718618420       -2.6968911238       -2.5205043804
  C         9.7980410077       -4.6251877022        2.1809847476
  H        10.6408655401       -5.3318691344        2.3887999993
  O         9.7475126746       -4.1807480845        0.9928720775
  O         9.0292362631       -4.5683532535        3.1871521681
  C        -2.8217177170       -8.8884030453        5.3598599627
  H        -2.4154187803       -9.9024293192        5.4343946394
  O        -1.9849388642       -7.9306934346        5.0424187761
  O        -4.0904225212       -8.7275593103        5.4045457325
  C         2.9969125837       -8.6915855213        5.2874323637
  H         2.6967725338       -9.0398269484        6.2934215078
  O         1.9998033752       -8.3580768341        4.5595940869
  O         4.2232410849       -8.6014257678        4.9168670802
  C         2.8792856649       -5.7053294045        8.2323992281
  H         2.3955873073       -6.3773024893        8.9303283437
  O         2.2195083856       -4.8091127088        7.6164900835
  O         4.1497349636       -5.9037793495        8.1538414339
  C        -2.5347046154       -5.9173520768        8.5219641698
  H        -2.0052498086       -6.7390725628        9.0096019785
  O        -1.9212606382       -5.2585967245        7.5984305967
  O        -3.6522262937       -5.5086811192        8.8929663708
  C        -6.8630607241        2.3027116913        7.3891583095
  H        -7.2086193538        3.3071349018        7.3885257928
  O        -5.6216785717        2.1591597374        7.5338834217
  O        -7.6696945885        1.3704354075        7.1999986947
  C        -4.1170079645        6.2827825080        7.2281580649
  H        -5.2418933127        6.2896177269        7.3832000201
  O        -3.5270047828        5.2292026257        6.7739579442
  O        -3.5911948349        7.4673732155        7.3180884691
  C        -6.2567265948        7.1462137753        4.0781050308
  H        -7.2111390447        7.1649409639        4.6689854642
  O        -5.8090653939        6.0482691394        3.6281155499
  O        -5.6132263695        8.2209477302        3.8491918313
  C        -9.2741835047        2.9617361914        4.4604884471
  H        -9.7855372140        3.8838940690        4.7760086716
  O        -8.0589842220        3.0118592374        4.1194033038
  O       -10.0814413901        1.9796359915        4.3924477505
  C        -9.6032546307       -3.5282060325        4.2551521008
  H       -10.5971720209       -3.6001750875        4.7566807035
  O        -9.3833874847       -2.7227637997        3.2943335980
  O        -8.6794418675       -4.3021464839        4.7633687218
  C        -5.4081387618       -6.0792097294       -6.1561687045
  H        -6.0546960796       -6.5859836395       -6.8890942905
  O        -5.3112743541       -6.5041781081       -4.9657181831
  O        -4.7988608038       -5.0928447923       -6.6854041170
  C        -7.4874781261       -7.2705344487       -1.8348007139
  H        -7.8388434959       -7.7173330376       -2.7530342297
  O        -6.3889101215       -6.5550409003       -1.8845382747
  O        -8.0718945246       -7.4410435620       -0.7459859548
  C        -9.2562428334       -3.4270114671       -2.1219645136
  H        -9.5270787848       -4.0663584857       -2.9594189931
  O        -8.1699402000       -2.7554755463       -2.2726286436
  O        -9.8243489249       -3.4941095503       -1.0093678037
  C        -6.7206957661       -1.5101673961       -7.0045752777
  H        -7.7450574417       -1.9674181007       -7.1698505571
  O        -6.3198269606       -1.2782450150       -5.7994633182
  O        -6.0637464107       -1.2636942982       -8.0157527224
  C        -1.9628827983        5.6954844548       -7.4852938628
  H        -1.7770888886        6.7764005651       -7.4923242406
  O        -2.4611610685        5.1869644400       -6.4090513159
  O        -1.7562378066        5.0409588454       -8.5286036430
  C        -1.7168688889        9.0074822303       -3.7839166132
  H        -1.3493405476        9.2660238074       -4.8465614694
  O        -1.7699960928        7.7199735218       -3.5247156213
  O        -1.9637100536        9.8897139744       -2.9410006467
  C         2.5062190945        8.6538643678       -4.1272910728
  H         2.7131102182        9.0638249498       -5.0476060874
  O         2.0944372498        7.4536291133       -4.0305992830
  O         2.6627234836        9.4113310120       -3.1554952257
  C         1.7411302942        5.3672397234       -8.1968448598
  H         1.4358383610        6.4416008070       -8.3632925476
  O         2.2780740086        5.0767805630       -7.0414915184
  O         1.5311931207        4.4835805840       -9.0177304455
  C         9.4768439415        2.6096230983        3.9000102204
  H         9.6131090334        3.4671477718        4.5843902861
  O         8.5283466892        2.7173803399        3.0494670797
  O        10.1887306707        1.5403270781        4.0333395252
  C         6.6326459125        7.0382756706        3.3282154855
  H         7.5082674956        7.1289998248        4.0070788575
  O         6.4945724188        6.1606516740        2.4467193831
  O         5.7957351721        7.9030948915        3.5815660198
  C         4.7447755005        5.8524700302        6.9353700129
  H         5.7085862008        5.7040540943        7.4370666698
  O         4.3287064607        4.9886243134        6.0815283739
  O         4.1462313563        6.9225571569        7.1374647296
  C         7.5603309323        1.7452823701        7.1878507085
  H         8.1158840311        2.6116602203        7.6593692779
  O         6.7460603721        2.0302001645        6.2245350455
  O         7.8436472888        0.5822849855        7.5896302518
     227
 i =        2, time =        2.000, E =       -13.2455144446
 Cd        -8.6169543649        0.4782516628        3.4769562622
 Cd        -5.8712026528       -0.2574814407        7.1134825187
 Cd        -8.4089535022       -2.1554497755        0.3834788733
 Cd        -6.8895585678       -3.2937050986        3.9621700178