     227
 i =        0, time =        0.000, E =         9.0056230050
 Cd        -8.6216924880        0.4810107428        3.4775887729
 Cd        -5.8723589632       -0.2566559957        7.1151373767
 Cd        -8.4076147924       -2.1531404527        0.3867588804
 Cd        -6.8957642261       -3.2896665849        3.9600318291
 Cd        -3.6930098048       -3.6992689615        7.3819491709
 Cd        -6.4429261463       -6.2347087238        0.4622469067
 Cd        -4.3123952394       -6.8285875372        3.9039095072
 Cd        -6.1141073353        3.8626235599        2.9066844924
 Cd        -3.6048790416        2.8797284733        6.5917986711
 Cd        -6.7531255596        1.1841266196       -0.3182182747
 Cd        -4.0437606329        0.0729837467        3.0511954168
 Cd        -1.7753257667       -0.3121054857        6.8316599018
 Cd        -6.3661028473       -1.4630135273       -3.4383357626
 Cd        -4.3602814436       -3.1214810613       -0.1759283953
 Cd        -2.2424276819       -3.6242998489        3.6335413818
 Cd         0.1757294635       -3.9625201566        7.0364714760
 Cd        -4.2692200317       -5.9860442556       -3.0005266361
 Cd        -2.2482225396       -6.7972628816        0.6786391664
 Cd         0.0669003827       -7.3030327295        3.8545421700
 Cd        -4.0792754193        7.4105475565        2.4175118797
 Cd        -1.6116442377        6.4880648240        6.2478272306
 Cd        -4.3308002626        4.8127262164       -0.6762739309
 Cd        -1.8326132452        3.6694977750        3.1598212265
 Cd         0.4939817277        3.1637060931        6.7202662426
 Cd        -4.5980154021        1.9988297698       -4.0880170010
 Cd        -2.1651194586        1.0165564496       -0.4536921834
 Cd         0.1376109507       -0.0659106884        3.1336818174
 Cd         2.6419074521       -0.6636939286        6.8958319365
 Cd        -4.1515129292       -0.5348426091       -6.9620217917
 Cd        -2.2012490343       -1.8491984656       -3.4894107829
 Cd         0.0359311218       -2.8494155653       -0.0264680683
 Cd         2.4407298775       -3.8224684908        3.5289587884
 Cd         4.5907434619       -4.2169180472        6.5928471603
 Cd        -2.6321953796       -4.5685798778       -6.0773989300
 Cd        -0.3638438279       -6.1221236347       -3.0620735359
 Cd         1.9882729153       -6.8506852632       -0.0376753302
 Cd         4.3604701588       -7.5063202656        3.0981086138
 Cd        -2.4313710890        8.2839908015       -1.2010761441
 Cd         0.1210964618        6.7915494583        2.0748938605
 Cd         2.2602783261        6.3879934074        5.9824457591
 Cd        -2.2743307721        5.5403016700       -4.1096429978
 Cd         0.1552258413        4.6164378819       -0.9814446932
 Cd         2.6173372932        3.7540356816        2.4616712460
 Cd         4.3934694910        2.5024270436        5.6448470259
 Cd        -2.3839877703        3.0961459608       -7.5397423510
 Cd        -0.1308699873        1.7716472388       -4.3458913396
 Cd         2.1522040622        0.8595996928       -0.9600505658
 Cd         4.3027041934       -0.4425155449        2.5248589789
 Cd         6.4943132815       -0.6514444341        6.0110723312
 Cd         0.4032906214       -0.5920449882       -7.0625722312
 Cd         2.1504065746       -1.8410095193       -3.9631978812
 Cd         4.1282053355       -2.9764966895       -0.5499119195
 Cd         6.9189885741       -3.8001688729        2.8840486736
 Cd         1.0693858855       -4.7693596381       -6.7909688629
 Cd         3.6529341800       -5.7620820022       -3.6150795142
 Cd         5.7341856059       -6.5625995016       -0.3323817960
 Cd         2.4532379782        8.1225833618       -1.1556872380
 Cd         4.4025673150        7.2904811152        1.7928276254
 Cd         2.3800547108        5.2453457502       -4.8107637235
 Cd         4.8184663347        4.7191125514       -1.4277792117
 Cd         6.7589411702        3.8390778732        2.0295448973
 Cd         2.6210634084        2.7844913241       -7.7035228004
 Cd         4.8495943395        1.7843685348       -4.5225056138
 Cd         6.7261500983        1.0662237140       -0.9642295531
 Cd         8.8881450478        0.4141445330        2.4369093904
 Cd         4.3615782352       -0.9213178924       -7.7328888960
 Cd         6.7438649008       -1.9767569930       -4.2031112584
 Cd         8.5272445020       -2.6218905711       -0.2551455218
 Se        -9.0557725106        0.2424574140        0.9180313808
 Se        -6.3745872764       -0.6570220647        4.4225742627
 Se        -3.9358548519       -1.3506397678        8.2925868769
 Se        -6.5830028390       -3.7408669090        1.3890860046
 Se        -4.5802302415       -4.2716541219        4.8585926421
 Se        -4.6110671623       -7.7792240778        1.5343213278
 Se        -6.6407812351        3.9866809498        0.4586064126
 Se        -4.0705866514        2.6241591830        3.9150270775
 Se        -1.6315747320        2.0143859544        7.9219454430
 Se        -6.7106235468        0.9827493806       -3.1628202938
 Se        -4.4077684895       -0.2106461950        0.3970531668
 Se        -2.0534879979       -1.1190641497        4.2604482105
 Se         0.4069246601       -1.5676855049        8.0617057342
 Se        -4.4126107232       -3.1307459794       -2.8028288282
 Se        -2.2371864822       -4.0884616040        0.9473336128
 Se         0.1541797359       -4.8148952714        4.4843326207
 Se        -2.4147106009       -7.4199706225       -2.0529393442
 Se        -0.0662571417       -7.8800811154        1.3078284855
 Se        -4.5519687636        7.5920037884       -0.0122560791
 Se        -1.8482840651        6.3647212661        3.5390459072
 Se         0.4006735392        5.8241498358        7.5878867146
 Se        -4.4655945585        4.5529209660       -3.3484418515
 Se        -2.0798083538        3.7153034916        0.3451575142
 Se         0.4973892782        2.6967113851        3.7286137790
 Se         2.7724753484        1.9958260876        7.6298945277
 Se        -4.6126224962        2.0736182894       -6.9031574659
 Se        -2.2770211290        0.8531533747       -3.1284312065
 Se         0.0138865169       -0.1636477002        0.3858468104
 Se         2.3115473387       -1.3198431962        4.0017354986
 Se         4.8624545925       -1.8855864388        7.7371297607
 Se        -2.0700877949       -1.9675257511       -6.4603372509
 Se        -0.0447057629       -3.1582708631       -2.8090856920
 Se         2.2343306950       -4.2299664240        0.7817840723
 Se         4.8342987615       -4.9516929708        4.0974643468
 Se        -0.7556003326       -6.2829108386       -5.8406699955
 Se         1.9243057511       -7.4784768035       -2.6074198353
 Se         4.2543989663       -8.3809591814        0.7363809319
 Se         0.0386925703        7.3677075300       -0.4939635450
 Se         2.3791568525        6.5289221229        3.1400383851
 Se         0.0465974103        4.4270318221       -3.5936563407
 Se         2.5167269427        3.6273521599       -0.0581806204
 Se         4.7705604635        2.4670139639        3.1233546104
 Se         0.0435933033        1.9323944164       -6.9695738842
 Se         2.2733127965        0.7623703678       -3.6584263160
 Se         4.3816175435       -0.2841549253       -0.0177063702
 Se         6.9670500347       -1.1290204494        3.5565582379
 Se         2.2410869402       -2.2702007814       -6.6798205275
 Se         4.3723294721       -3.1971869108       -3.2130677403
 Se         6.4331938555       -4.1098532443        0.4136420186
 Se         4.8503033307        7.5509093293       -0.7463548497
 Se         4.8776288797        4.5477652435       -4.0091414448
 Se         7.0830986217        3.5950723552       -0.6434567968
 Se         4.7810064642        1.5273410534       -7.5566303287
 Se         6.9188050062        0.6130038217       -3.7081238627
 Se         9.1066871843       -0.0609359671       -0.0919647969
  C         6.9955771113       -6.9586634775       -2.8583426301
  H         7.7780160969       -7.1271873265       -3.6573399650
  O         5.8389952916       -6.4652991204       -3.1445809228
  O         7.2920676004       -7.2683568805       -1.6893132711
  C         3.3939431960       -6.2668607509       -6.9513074648
  H         4.3245440932       -6.8689211647       -7.0591687882
  O         3.0202466073       -5.7860511295       -5.7843136273
  O         2.6220129789       -6.1746538788       -7.9242101403
  C         6.3116555909       -2.9071154185       -7.4921130606
  H         7.0978863851       -3.7212906458       -7.4285512081
  O         6.0096715894       -2.3219711192       -6.3505932827
  O         5.9403243477       -2.4750431756       -8.6116316973
  C         8.9837561036       -3.3697375837       -3.4349055328
  H         9.9249943929       -3.8864043165       -3.1840078659
  O         8.5659407989       -3.4209184445       -4.6048832464
  O         8.2714489672       -2.6971151254       -2.5207012617
  C         9.7902109758       -4.6282247391        2.1768529346
  H        10.6284324694       -5.3337138149        2.3552924638
  O         9.7484501532       -4.1824896055        0.9942458601
  O         9.0219926648       -4.5705851174        3.1873629795
  C        -2.8252708508       -8.8894178348        5.3653894160
  H        -2.3915771747       -9.8892286280        5.4446685031
  O        -1.9808601030       -7.9304545651        5.0436955975
  O        -4.0908415257       -8.7280019527        5.4030844137
  C         3.0047406823       -8.6887063298        5.2919739424
  H         2.6853413808       -9.0312323512        6.2714246943
  O         1.9985977812       -8.3553887881        4.5599054594
  O         4.2197147413       -8.6069092298        4.9235206312
  C         2.8732291572       -5.7090624943        8.2322507888
  H         2.4095730423       -6.3582442170        8.9295273658
  O         2.2236878889       -4.8031284854        7.6183804854
  O         4.1525405945       -5.8988692439        8.1468427445
  C        -2.5324052264       -5.9090323801        8.5168983878
  H        -2.0058427467       -6.7599986745        9.0204193621
  O        -1.9189018681       -5.2527647032        7.5983339134
  O        -3.6521974131       -5.4981014961        8.8936623702
  C        -6.8661340661        2.3082426882        7.3884767521
  H        -7.2433530482        3.2983326111        7.3747512577
  O        -5.6189307919        2.1553364867        7.5292857639
  O        -7.6694328727        1.3672322100        7.2032576312
  C        -4.1128935570        6.2776012356        7.2258109093
  H        -5.2184092536        6.2949225170        7.4003980339
  O        -3.5215502414        5.2331222329        6.7794929280
  O        -3.5956064510        7.4679880815        7.3184340370
  C        -6.2584500423        7.1467273309        4.0778865765
  H        -7.2018864753        7.1620259062        4.6862261037
  O        -5.8042352338        6.0508881806        3.6277903665
  O        -5.6141473350        8.2227071687        3.8530055117
  C        -9.2670155991        2.9624473135        4.4549609073
  H        -9.7760873251        3.8307467380        4.7753730710
  O        -8.0580447847        3.0137717908        4.1153681461
  O       -10.0869615960        1.9755230626        4.3964141791
  C        -9.5997958208       -3.5202239981        4.2555074891
  H       -10.6284324694       -3.6062117458        4.7363993397
  O        -9.3836198173       -2.7271085544        3.2939504316
  O        -8.6749593009       -4.3055307223        4.7674147240
  C        -5.4063829718       -6.0836320759       -6.1576393485
  H        -6.0390997038       -6.5934387315       -6.8768176703
  O        -5.3157147411       -6.5042627408       -4.9638375967
  O        -4.7997118332       -5.0931497246       -6.6842330004
  C        -7.4812021438       -7.2683192216       -1.8337008205
  H        -7.8430239833       -7.7214409635       -2.7403108931
  O        -6.3847231004       -6.5596142310       -1.8855223803
  O        -8.0870004405       -7.4369608581       -0.7449951352
  C        -9.2637717352       -3.4248031045       -2.1287629167
  H        -9.5435102925       -4.0726156799       -2.9624854104
  O        -8.1685743898       -2.7562864935       -2.2769679175
  O        -9.8293124780       -3.4993302663       -1.0042472880
  C        -6.7198117275       -1.5155721631       -7.0057360974
  H        -7.7266400310       -1.9701098143       -7.1795729881
  O        -6.3208037730       -1.2812141421       -5.7891801227
  O        -6.0546670581       -1.2647410752       -8.0219575549
  C        -1.9610306020        5.6962737072       -7.4797868569
  H        -1.8068881661        6.7616764611       -7.4798700689
  O        -2.4613788677        5.1953402046       -6.4147373301
  O        -1.7592038190        5.0404242691       -8.5376948407
  C        -1.7153677193        9.0065729983       -3.7807068554
  H        -1.3518565997        9.2891789052       -4.8285272378
  O        -1.7735635219        7.7204009534       -3.5311974415
  O        -1.9589811591        9.8892286280       -2.9296575010
  C         2.5176986766        8.6527359013       -4.1276241396
  H         2.7356319561        9.0838176512       -5.0545617483
  O         2.0941304229        7.4607563111       -4.0382054964
  O         2.6632020791        9.4136986823       -3.1567247192
  C         1.7405814703        5.3615037054       -8.2026998584
  H         1.4592813282        6.4433815072       -8.3446733349
  O         2.2712544771        5.0744229803       -7.0359036782
  O         1.5374971892        4.4786315137       -9.0204193621
  C         9.4791869119        2.6134878200        3.9079418032
  H         9.6264681644        3.4611325178        4.5867541287
  O         8.5294682966        2.7206869475        3.0468687327
  O        10.1884170796        1.5361363159        4.0354546634
  C         6.6320899766        7.0427804887        3.3240585285
  H         7.5183451153        7.1103565644        4.0025867163
  O         6.4921259472        6.1579139584        2.4473334656
  O         5.8014508194        7.8970951585        3.5804466065
  C         4.7468288793        5.8510846562        6.9391041765
  H         5.6837062732        5.7110173508        7.4566454645
  O         4.3315486404        4.9881730889        6.0840680113
  O         4.1390624477        6.9214380767        7.1338855679
  C         7.5642974957        1.7429307679        7.1823006621
  H         8.1116275708        2.6102062210        7.6466333920
  O         6.7423080014        2.0330978891        6.2208765696
  O         7.8434776238        0.5800715711        7.5931108165
     227
 i =        1, time =        1.000, E =         8.8986048995
 Cd        -8.6192767110        0.4795083661        3.4773908445
 Cd        -5.8720353837       -0.2570688378        7.1141892733
 Cd        -8.4082493354       -2.1544275862        0.3850317097
 Cd        -6.8925398953       -3.2915458828        3.9611360779
 Cd        -3.6902186937       -3.7006732843        7.3821307632
 Cd        -6.4421186663       -6.2356692467        0.4643358092
 Cd        -4.3122839857       -6.8294751894        3.9056046559
 Cd        -6.1165550684        3.8608946582        2.9060386182
 Cd        -3.6069279995        2.8813524592        6.5901167371
 Cd        -6.7533995496        1.1873015824       -0.3192453896
 Cd        -4.0445931864        0.0755128596        3.0500737919
 Cd        -1.7741959091       -0.3129002897        6.8334180877
 Cd        -6.3661969775       -1.4631312378       -3.4401653101
 Cd        -4.3616563622       -3.1216015898       -0.1744630807
 Cd        -2.2425575758       -3.6219405358        3.6335577650
 Cd         0.1783645182       -3.9617398521        7.0369345653
 Cd        -4.2696237389       -5.9877710104       -2.9988731462
 Cd        -2.2491586131       -6.7963790752        0.6790034564
 Cd         0.0676134446       -7.3033073464        3.8543786305
 Cd        -4.0799095108        7.4118556442        2.4187616305
 Cd        -1.6111132967        6.4882904827        6.2506333902
 Cd        -4.3324922178        4.8129351354       -0.6768936011
 Cd        -1.8303844417        3.6697671988        3.1587687856
 Cd         0.4898199529        3.1634363942        6.7202786718
 Cd        -4.5991389588        2.0001608960       -4.0893381541
 Cd        -2.1630267289        1.0183600919       -0.4517147762
 Cd         0.1383804898       -0.0679679879        3.1343431332
 Cd         2.6424297192       -0.6634734708        6.8956281839
 Cd        -4.1541085308       -0.5350714922       -6.9611115205
 Cd        -2.2032400786       -1.8489085011       -3.4902330229
 Cd         0.0357664321       -2.8475052975       -0.0251188453
 Cd         2.4398159569       -3.8219608478        3.5303388891
 Cd         4.5938475583       -4.2152692106        6.5947053152
 Cd        -2.6319451016       -4.5697540824       -6.0784603990
 Cd        -0.3608569583       -6.1207172882       -3.0631903469
 Cd         1.9865766890       -6.8522345597       -0.0373565308
 Cd         4.3579507458       -7.5043799732        3.0971743973
 Cd        -2.4317071146        8.2869411816       -1.2005358976
 Cd         0.1211402330        6.7913073098        2.0742743409
 Cd         2.2582118921        6.3880775358        5.9820019704
 Cd        -2.2737894681        5.5407812539       -4.1122576768
 Cd         0.1544378966        4.6148927820       -0.9821023275
 Cd         2.6163714000        3.7536868765        2.4615134255
 Cd         4.3939970464        2.5015636564        5.6449665256
 Cd        -2.3861236869        3.0935214556       -7.5400601576
 Cd        -0.1312296520        1.7709556127       -4.3473226179
 Cd         2.1530592807        0.8602103191       -0.9631842019
 Cd         4.3037096310       -0.4401903679        2.5252271012
 Cd         6.4920018305       -0.6516063292        6.0108371476
 Cd         0.4038366408       -0.5928592816       -7.0623208398
 Cd         2.1511698559       -1.8412990840       -3.9633036011
 Cd         4.1300350243       -2.9779006040       -0.5482546742
 Cd         6.9197915424       -3.7967864944        2.8859933147
 Cd         1.0696361984       -4.7687642668       -6.7909161060
 Cd         3.6506972148       -5.7624449992       -3.6175150309
 Cd         5.7326308734       -6.5636946659       -0.3326267917
 Cd         2.4546513254        8.1225479054       -1.1567014698
 Cd         4.4055286351        7.2899515198        1.7947410475
 Cd         2.3803955749        5.2451531753       -4.8084187231
 Cd         4.8186906454        4.7186205144       -1.4280257761
 Cd         6.7582882711        3.8403114853        2.0310959439
 Cd         2.6212927763        2.7830813715       -7.7034221836
 Cd         4.8487172752        1.7849444157       -4.5234323494
 Cd         6.7275354233        1.0645768538       -0.9630985982
 Cd         8.8867840716        0.4155296354        2.4350034868
 Cd         4.3616460652       -0.9232528032       -7.7310658142
 Cd         6.7426360316       -1.9756796974       -4.2011481130
 Cd         8.5292498415       -2.6208084700       -0.2526477077
 Se        -9.0556157214        0.2437643935        0.9178695911
 Se        -6.3729109260       -0.6563594574        4.4184939203
 Se        -3.9341508687       -1.3487065644        8.2978766186
 Se        -6.5830325182       -3.7427914593        1.3877260446
 Se        -4.5790989231       -4.2753846208        4.8602186754
 Se        -4.6124319040       -7.7777004184        1.5325621481
 Se        -6.6431526778        3.9856010886        0.4566878808
 Se        -4.0721571700        2.6207400602        3.9147560266
 Se        -1.6328367054        2.0122703156        7.9264087160
 Se        -6.7131934306        0.9838282656       -3.1650155180
 Se        -4.4073848034       -0.2113750100        0.3947420107
 Se        -2.0528452746       -1.1150482736        4.2597163698
 Se         0.4058967014       -1.5660426172        8.0658959144
 Se        -4.4162872915       -3.1306110951       -2.8051455857
 Se        -2.2370315665       -4.0916755117        0.9472941030
 Se         0.1527986370       -4.8125537350        4.4860433656
 Se        -2.4164459796       -7.4217830012       -2.0537580896
 Se        -0.0663322649       -7.8803339681        1.3096296927
 Se        -4.5534260612        7.5951033434       -0.0134991679
 Se        -1.8476533818        6.3635892853        3.5409080607
 Se         0.4038655724        5.8259886182        7.5875170098
 Se        -4.4671639562        4.5542855515       -3.3489862810
 Se        -2.0809311991        3.7151308272        0.3431752426
 Se         0.4985569567        2.6966278849        3.7292330265
 Se         2.7718612077        1.9959554645        7.6271112230
 Se        -4.6143374820        2.0749488158       -6.9051003957
 Se        -2.2791408551        0.8534553192       -3.1262326264
 Se         0.0148608137       -0.1633156570        0.3855536319
 Se         2.3130392819       -1.3182643155        3.9997280663
 Se         4.8635044622       -1.8842025559        7.7363679305
 Se        -2.0696706307       -1.9665605676       -6.4605880632
 Se        -0.0442717779       -3.1603972375       -2.8087623986
 Se         2.2321491707       -4.2317016929        0.7810530220
 Se         4.8363915162       -4.9536313739        4.0967822303
 Se        -0.7552359291       -6.2862102879       -5.8414398813
 Se         1.9250453717       -7.4799497758       -2.6080590281
 Se         4.2591884874       -8.3805305475        0.7358331993
 Se         0.0353836411        7.3689735903       -0.4915618356
 Se         2.3813591651        6.5251906925        3.1435121952
 Se         0.0440544094        4.4288502324       -3.5943883542
 Se         2.5165083524        3.6273779387       -0.0579799912
 Se         4.7732406704        2.4656858635        3.1250517331
 Se         0.0454011035        1.9307053772       -6.9712845746
 Se         2.2762484681        0.7652602970       -3.6571706163
 Se         4.3770544406       -0.2853253276       -0.0185459421
 Se         6.9678880071       -1.1296145023        3.5577317133
 Se         2.2376935087       -2.2689824513       -6.6840917579
 Se         4.3741451566       -3.1974688096       -3.2158901160
 Se         6.4330006756       -4.1118913084        0.4121552287
 Se         4.8530714678        7.5525063841       -0.7464413373
 Se         4.8778534635        4.5492153667       -4.0131513438
 Se         7.0864851983        3.5942329241       -0.6428815909
 Se         4.7831231257        1.5271914703       -7.5556012557
 Se         6.9197487047        0.6111646963       -3.7073514724
 Se         9.1076597420       -0.0624023115       -0.0929555859
  C         6.9966747129       -6.9498201435       -2.8612704734
  H         7.7649322095       -7.1224747738       -3.6684216540
  O         5.8463490472       -6.4683552446       -3.1398207979
  O         7.2927642686       -7.2761024778       -1.6973590062
  C         3.3950746498       -6.2672953152       -6.9491702411
  H         4.3444066225       -6.8936096686       -7.0753272229
  O         3.0192656002       -5.7917722042       -5.7851380126
  O         2.6189731068       -6.1700036780       -7.9249010966
  C         6.3106275604       -2.9078573277       -7.4910332368
  H         7.1299137504       -3.7048862282       -7.4466889051
  O         6.0084090693       -2.3189737004       -6.3502351697
  O         5.9405670676       -2.4754125173       -8.6131327355
  C         8.9774323356       -3.3708847443       -3.4296409818
  H         9.9250180562       -3.8774829974       -3.1826003730
  O         8.5698382557       -3.4161158133       -4.6049558047
  O         8.2727344324       -2.6976985241       -2.5223545604
  C         9.7980595066       -4.6251949615        2.1809920857
  H        10.6408655401       -5.3318691344        2.3887999993
  O         9.7494830149       -4.1820334908        0.9940120628
  O         9.0321784049       -4.5694562287        3.1876620100
  C        -2.8217250936       -8.8884224038        5.3598598356
  H        -2.4154187803       -9.9024293192        5.4343946394
  O        -1.9857443088       -7.9311842369        5.0430595514
  O        -4.0903150077       -8.7284987479        5.4053323966
  C         2.9969176915       -8.6916059399        5.2874292012
  H         2.6967725338       -9.0398269484        6.2934215078
  O         2.0016448154       -8.3592376241        4.5604516159
  O         4.2228085158       -8.6048046892        4.9222352736
  C         2.8792959664       -5.7053280653        8.2324150271
  H         2.3955873073       -6.3773024893        8.9303283437
  O         2.2215494975       -4.8103955856        7.6174610799
  O         4.1493581665       -5.9052646710        8.1552110602
  C        -2.5347093782       -5.9173497494        8.5219877133
  H        -2.0052498086       -6.7390725628        9.0096019785
  O        -1.9206819631       -5.2600889647        7.5989776205
  O        -3.6521883577       -5.5100866898        8.8941487183
  C        -6.8630647499        2.3027085276        7.3891851625
  H        -7.2086193538        3.3071349018        7.3885257928
  O        -5.6233734674        2.1596209381        7.5349106214
  O        -7.6706929052        1.3713952092        7.2002714216
  C        -4.1170015945        6.2827945926        7.2281767033
  H        -5.2418933127        6.2896177269        7.3832000201
  O        -3.5286087138        5.2300003921        6.7746956121
  O        -3.5920305870        7.4677892032        7.3185570665
  C        -6.2567357751        7.1462303651        4.0780981286
  H        -7.2111390447        7.1649409639        4.6689854642
  O        -5.8094790898        6.0499517067        3.6292480060
  O        -5.6153948340        8.2221028045        3.8512212375
  C        -9.2742044283        2.9617479739        4.4604820618
  H        -9.7855372140        3.8838940690        4.7760086716
  O        -8.0599065046        3.0118709583        4.1200861168
  O       -10.0831133706        1.9813465365        4.3935349248
  C        -9.6032689492       -3.5282141288        4.2551606109
  H       -10.5971720209       -3.6001750875        4.7566807035
  O        -9.3843524632       -2.7228006697        3.2946044177
  O        -8.6829174115       -4.3041009236        4.7649612454
  C        -5.4081384745       -6.0792236452       -6.1561835647
  H        -6.0546960796       -6.5859836395       -6.8890942905
  O        -5.3125170397       -6.5048291916       -4.9679705941
  O        -4.8009862066       -5.0933908667       -6.6860248846
  C        -7.4874871244       -7.2705568017       -1.8347969297
  H        -7.8388434959       -7.7173330376       -2.7530342297
  O        -6.3898350285       -6.5555391629       -1.8857254420
  O        -8.0730607327       -7.4418767724       -0.7468416261
  C        -9.2562632945       -3.4270037411       -2.1219710768
  H        -9.5270787848       -4.0663584857       -2.9594189931
  O        -8.1706925813       -2.7559486541       -2.2725383500
  O        -9.8252155574       -3.4948743231       -1.0101939440
  C        -6.7207040073       -1.5101540829       -7.0045900004
  H        -7.7450574417       -1.9674181007       -7.1698505571
  O        -6.3203098563       -1.2787046633       -5.8013930538
  O        -6.0658188054       -1.2645954636       -8.0169209910
  C        -1.9628979626        5.6954879323       -7.4853081428
  H        -1.7770888886        6.7764005651       -7.4923242406
  O        -2.4612757717        5.1882375619       -6.4105000091
  O        -1.7555317703        5.0434181361       -8.5298780505
  C        -1.7168838226        9.0074988442       -3.7839149956
  H        -1.3493405476        9.2660238074       -4.8465614694
  O        -1.7695993204        7.7221315008       -3.5253737665
  O        -1.9634892254        9.8906523970       -2.9420009684
  C         2.5062321278        8.6538787803       -4.1272907844
  H         2.7131102182        9.0638249498       -5.0476060874
  O         2.0943541704        7.4554346751       -4.0302572174
  O         2.6627503859        9.4122220726       -3.1568469662
  C         1.7411479109        5.3672416661       -8.1968586720
  H         1.4358383610        6.4416008070       -8.3632925476
  O         2.2777886538        5.0778861279       -7.0446568775
  O         1.5307555213        4.4848089412       -9.0187014478
  C         9.4768692533        2.6096260396        3.9000032819
  H         9.6131090334        3.4671477718        4.5843902861
  O         8.5299243081        2.7176819033        3.0507252864
  O        10.1897751834        1.5412237619        4.0345889944
  C         6.6326552942        7.0382948612        3.3282073322
  H         7.5082674956        7.1289998248        4.0070788575
  O         6.4953305844        6.1617911620        2.4473972842
  O         5.7970465016        7.9036624732        3.5829656083
  C         4.7447700795        5.8524785458        6.9353887651
  H         5.7085862008        5.7040540943        7.4370666698
  O         4.3295404421        4.9890901248        6.0817870457
  O         4.1487011284        6.9232621956        7.1389257294
  C         7.5603354257        1.7452814400        7.1878721092
  H         8.1158840311        2.6116602203        7.6593692779
  O         6.7471723506        2.0303202292        6.2250326276
  O         7.8444468488        0.5830070568        7.5904601842
     227
 i =        2, time =        2.000, E =         8.6061677206
 Cd        -8.6167539083        0.4777928356        3.4776550937
 Cd        -5.8727485119       -0.2571505286        7.1128261014
 Cd        -8.4089987364       -2.1563244222        0.3828769919
 Cd        -6.8889783562       -3.2929083156        3.9623200772