     227
 i =        0, time =        0.000, E =        -5.7799993794
 Cd        -8.6216924880        0.4810107428        3.4775887729
 Cd        -5.8723589632       -0.2566559957        7.1151373767
 Cd        -8.4076147924       -2.1531404527        0.3867588804
 Cd        -6.8957642261       -3.2896665849        3.9600318291
 Cd        -3.6930098048       -3.6992689615        7.3819491709
 Cd        -6.4429261463       -6.2347087238        0.4622469067
 Cd        -4.3123952394       -6.8285875372        3.9039095072
 Cd        -6.1141073353        3.8626235599        2.9066844924
 Cd        -3.6048790416        2.8797284733        6.5917986711
 Cd        -6.7531255596        1.1841266196       -0.3182182747
 Cd        -4.0437606329        0.0729837467        3.0511954168
 Cd        -1.7753257667       -0.3121054857        6.8316599018
 Cd        -6.3661028473       -1.4630135273       -3.4383357626
 Cd        -4.3602814436       -3.1214810613       -0.1759283953
 Cd        -2.2424276819       -3.6242998489        3.6335413818
 Cd         0.1757294635       -3.9625201566        7.0364714760
 Cd        -4.2692200317       -5.9860442556       -3.0005266361
 Cd        -2.2482225396       -6.7972628816        0.6786391664
 Cd         0.0669003827       -7.3030327295        3.8545421700
 Cd        -4.0792754193        7.4105475565        2.4175118797
 Cd        -1.6116442377        6.4880648240        6.2478272306
 Cd        -4.3308002626        4.8127262164       -0.6762739309
 Cd        -1.8326132452        3.6694977750        3.1598212265
 Cd         0.4939817277        3.1637060931        6.7202662426
 Cd        -4.5980154021        1.9988297698       -4.0880170010
 Cd        -2.1651194586        1.0165564496       -0.4536921834
 Cd         0.1376109507       -0.0659106884        3.1336818174
 Cd         2.6419074521       -0.6636939286        6.8958319365
 Cd        -4.1515129292       -0.5348426091       -6.9620217917
 Cd        -2.2012490343       -1.8491984656       -3.4894107829
 Cd         0.0359311218       -2.8494155653       -0.0264680683
 Cd         2.4407298775       -3.8224684908        3.5289587884
 Cd         4.5907434619       -4.2169180472        6.5928471603
 Cd        -2.6321953796       -4.5685798778       -6.0773989300
 Cd        -0.3638438279       -6.1221236347       -3.0620735359
 Cd         1.9882729153       -6.8506852632       -0.0376753302
 Cd         4.3604701588       -7.5063202656        3.0981086138
 Cd        -2.4313710890        8.2839908015       -1.2010761441
 Cd         0.1210964618        6.7915494583        2.0748938605
 Cd         2.2602783261        6.3879934074        5.9824457591
 Cd        -2.2743307721        5.5403016700       -4.1096429978
 Cd         0.1552258413        4.6164378819       -0.9814446932
 Cd         2.6173372932        3.7540356816        2.4616712460
 Cd         4.3934694910        2.5024270436        5.6448470259
 Cd        -2.3839877703        3.0961459608       -7.5397423510
 Cd        -0.1308699873        1.7716472388       -4.3458913396
 Cd         2.1522040622        0.8595996928       -0.9600505658
 Cd         4.3027041934       -0.4425155449        2.5248589789
 Cd         6.4943132815       -0.6514444341        6.0110723312
 Cd         0.4032906214       -0.5920449882       -7.0625722312
 Cd         2.1504065746       -1.8410095193       -3.9631978812
 Cd         4.1282053355       -2.9764966895       -0.5499119195
 Cd         6.9189885741       -3.8001688729        2.8840486736
 Cd         1.0693858855       -4.7693596381       -6.7909688629
 Cd         3.6529341800       -5.7620820022       -3.6150795142
 Cd         5.7341856059       -6.5625995016       -0.3323817960
 Cd         2.4532379782        8.1225833618       -1.1556872380
 Cd         4.4025673150        7.2904811152        1.7928276254
 Cd         2.3800547108        5.2453457502       -4.8107637235
 Cd         4.8184663347        4.7191125514       -1.4277792117
 Cd         6.7589411702        3.8390778732        2.0295448973
 Cd         2.6210634084        2.7844913241       -7.7035228004
 Cd         4.8495943395        1.7843685348       -4.5225056138
 Cd         6.7261500983        1.0662237140       -0.9642295531
 Cd         8.8881450478        0.4141445330        2.4369093904
 Cd         4.3615782352       -0.9213178924       -7.7328888960
 Cd         6.7438649008       -1.9767569930       -4.2031112584
 Cd         8.5272445020       -2.6218905711       -0.2551455218
 Se        -9.0557725106        0.2424574140        0.9180313808
 Se        -6.3745872764       -0.6570220647        4.4225742627
 Se        -3.9358548519       -1.3506397678        8.2925868769
 Se        -6.5830028390       -3.7408669090        1.3890860046
 Se        -4.5802302415       -4.2716541219        4.8585926421
 Se        -4.6110671623       -7.7792240778        1.5343213278
 Se        -6.6407812351        3.9866809498        0.4586064126
 Se        -4.0705866514        2.6241591830        3.9150270775
 Se        -1.6315747320        2.0143859544        7.9219454430
 Se        -6.7106235468        0.9827493806       -3.1628202938
 Se        -4.4077684895       -0.2106461950        0.3970531668
 Se        -2.0534879979       -1.1190641497        4.2604482105
 Se         0.4069246601       -1.5676855049        8.0617057342
 Se        -4.4126107232       -3.1307459794       -2.8028288282
 Se        -2.2371864822       -4.0884616040        0.9473336128
 Se         0.1541797359       -4.8148952714        4.4843326207
 Se        -2.4147106009       -7.4199706225       -2.0529393442
 Se        -0.0662571417       -7.8800811154        1.3078284855
 Se        -4.5519687636        7.5920037884       -0.0122560791
 Se        -1.8482840651        6.3647212661        3.5390459072
 Se         0.4006735392        5.8241498358        7.5878867146
 Se        -4.4655945585        4.5529209660       -3.3484418515
 Se        -2.0798083538        3.7153034916        0.3451575142
 Se         0.4973892782        2.6967113851        3.7286137790
 Se         2.7724753484        1.9958260876        7.6298945277
 Se        -4.6126224962        2.0736182894       -6.9031574659
 Se        -2.2770211290        0.8531533747       -3.1284312065
 Se         0.0138865169       -0.1636477002        0.3858468104
 Se         2.3115473387       -1.3198431962        4.0017354986
 Se         4.8624545925       -1.8855864388        7.7371297607
 Se        -2.0700877949       -1.9675257511       -6.4603372509
 Se        -0.0447057629       -3.1582708631       -2.8090856920
 Se         2.2343306950       -4.2299664240        0.7817840723
 Se         4.8342987615       -4.9516929708        4.0974643468
 Se        -0.7556003326       -6.2829108386       -5.8406699955
 Se         1.9243057511       -7.4784768035       -2.6074198353
 Se         4.2543989663       -8.3809591814        0.7363809319
 Se         0.0386925703        7.3677075300       -0.4939635450
 Se         2.3791568525        6.5289221229        3.1400383851
 Se         0.0465974103        4.4270318221       -3.5936563407
 Se         2.5167269427        3.6273521599       -0.0581806204
 Se         4.7705604635        2.4670139639        3.1233546104
 Se         0.0435933033        1.9323944164       -6.9695738842
 Se         2.2733127965        0.7623703678       -3.6584263160
 Se         4.3816175435       -0.2841549253       -0.0177063702
 Se         6.9670500347       -1.1290204494        3.5565582379
 Se         2.2410869402       -2.2702007814       -6.6798205275
 Se         4.3723294721       -3.1971869108       -3.2130677403
 Se         6.4331938555       -4.1098532443        0.4136420186
 Se         4.8503033307        7.5509093293       -0.7463548497
 Se         4.8776288797        4.5477652435       -4.0091414448
 Se         7.0830986217        3.5950723552       -0.6434567968
 Se         4.7810064642        1.5273410534       -7.5566303287
 Se         6.9188050062        0.6130038217       -3.7081238627
 Se         9.1066871843       -0.0609359671       -0.0919647969
  C         6.9955771113       -6.9586634775       -2.8583426301
  H         7.7780160969       -7.1271873265       -3.6573399650
  O         5.8389952916       -6.4652991204       -3.1445809228
  O         7.2920676004       -7.2683568805       -1.6893132711
  C         3.3939431960       -6.2668607509       -6.9513074648
  H         4.3245440932       -6.8689211647       -7.0591687882
  O         3.0202466073       -5.7860511295       -5.7843136273
  O         2.6220129789       -6.1746538788       -7.9242101403
  C         6.3116555909       -2.9071154185       -7.4921130606
  H         7.0978863851       -3.7212906458       -7.4285512081
  O         6.0096715894       -2.3219711192       -6.3505932827
  O         5.9403243477       -2.4750431756       -8.6116316973
  C         8.9837561036       -3.3697375837       -3.4349055328
  H         9.9249943929       -3.8864043165       -3.1840078659
  O         8.5659407989       -3.4209184445       -4.6048832464
  O         8.2714489672       -2.6971151254       -2.5207012617
  C         9.7902109758       -4.6282247391        2.1768529346
  H        10.6284324694       -5.3337138149        2.3552924638
  O         9.7484501532       -4.1824896055        0.9942458601
  O         9.0219926648       -4.5705851174        3.1873629795
  C        -2.8252708508       -8.8894178348        5.3653894160
  H        -2.3915771747       -9.8892286280        5.4446685031
  O        -1.9808601030       -7.9304545651        5.0436955975
  O        -4.0908415257       -8.7280019527        5.4030844137
  C         3.0047406823       -8.6887063298        5.2919739424
  H         2.6853413808       -9.0312323512        6.2714246943
  O         1.9985977812       -8.3553887881        4.5599054594
  O         4.2197147413       -8.6069092298        4.9235206312
  C         2.8732291572       -5.7090624943        8.2322507888
  H         2.4095730423       -6.3582442170        8.9295273658
  O         2.2236878889       -4.8031284854        7.6183804854
  O         4.1525405945       -5.8988692439        8.1468427445
  C        -2.5324052264       -5.9090323801        8.5168983878
  H        -2.0058427467       -6.7599986745        9.0204193621
  O        -1.9189018681       -5.2527647032        7.5983339134
  O        -3.6521974131       -5.4981014961        8.8936623702
  C        -6.8661340661        2.3082426882        7.3884767521
  H        -7.2433530482        3.2983326111        7.3747512577
  O        -5.6189307919        2.1553364867        7.5292857639
  O        -7.6694328727        1.3672322100        7.2032576312
  C        -4.1128935570        6.2776012356        7.2258109093
  H        -5.2184092536        6.2949225170        7.4003980339
  O        -3.5215502414        5.2331222329        6.7794929280
  O        -3.5956064510        7.4679880815        7.3184340370
  C        -6.2584500423        7.1467273309        4.0778865765
  H        -7.2018864753        7.1620259062        4.6862261037
  O        -5.8042352338        6.0508881806        3.6277903665
  O        -5.6141473350        8.2227071687        3.8530055117
  C        -9.2670155991        2.9624473135        4.4549609073
  H        -9.7760873251        3.8307467380        4.7753730710
  O        -8.0580447847        3.0137717908        4.1153681461
  O       -10.0869615960        1.9755230626        4.3964141791
  C        -9.5997958208       -3.5202239981        4.2555074891
  H       -10.6284324694       -3.6062117458        4.7363993397
  O        -9.3836198173       -2.7271085544        3.2939504316
  O        -8.6749593009       -4.3055307223        4.7674147240
  C        -5.4063829718       -6.0836320759       -6.1576393485
  H        -6.0390997038       -6.5934387315       -6.8768176703
  O        -5.3157147411       -6.5042627408       -4.9638375967
  O        -4.7997118332       -5.0931497246       -6.6842330004
  C        -7.4812021438       -7.2683192216       -1.8337008205
  H        -7.8430239833       -7.7214409635       -2.7403108931
  O        -6.3847231004       -6.5596142310       -1.8855223803
  O        -8.0870004405       -7.4369608581       -0.7449951352
  C        -9.2637717352       -3.4248031045       -2.1287629167
  H        -9.5435102925       -4.0726156799       -2.9624854104
  O        -8.1685743898       -2.7562864935       -2.2769679175
  O        -9.8293124780       -3.4993302663       -1.0042472880
  C        -6.7198117275       -1.5155721631       -7.0057360974
  H        -7.7266400310       -1.9701098143       -7.1795729881
  O        -6.3208037730       -1.2812141421       -5.7891801227
  O        -6.0546670581       -1.2647410752       -8.0219575549
  C        -1.9610306020        5.6962737072       -7.4797868569
  H        -1.8068881661        6.7616764611       -7.4798700689
  O        -2.4613788677        5.1953402046       -6.4147373301
  O        -1.7592038190        5.0404242691       -8.5376948407
  C        -1.7153677193        9.0065729983       -3.7807068554
  H        -1.3518565997        9.2891789052       -4.8285272378
  O        -1.7735635219        7.7204009534       -3.5311974415
  O        -1.9589811591        9.8892286280       -2.9296575010
  C         2.5176986766        8.6527359013       -4.1276241396
  H         2.7356319561        9.0838176512       -5.0545617483
  O         2.0941304229        7.4607563111       -4.0382054964
  O         2.6632020791        9.4136986823       -3.1567247192
  C         1.7405814703        5.3615037054       -8.2026998584
  H         1.4592813282        6.4433815072       -8.3446733349
  O         2.2712544771        5.0744229803       -7.0359036782
  O         1.5374971892        4.4786315137       -9.0204193621
  C         9.4791869119        2.6134878200        3.9079418032
  H         9.6264681644        3.4611325178        4.5867541287
  O         8.5294682966        2.7206869475        3.0468687327
  O        10.1884170796        1.5361363159        4.0354546634
  C         6.6320899766        7.0427804887        3.3240585285
  H         7.5183451153        7.1103565644        4.0025867163
  O         6.4921259472        6.1579139584        2.4473334656
  O         5.8014508194        7.8970951585        3.5804466065
  C         4.7468288793        5.8510846562        6.9391041765
  H         5.6837062732        5.7110173508        7.4566454645
  O         4.3315486404        4.9881730889        6.0840680113
  O         4.1390624477        6.9214380767        7.1338855679
  C         7.5642974957        1.7429307679        7.1823006621
  H         8.1116275708        2.6102062210        7.6466333920
  O         6.7423080014        2.0330978891        6.2208765696
  O         7.8434776238        0.5800715711        7.5931108165
     227
 i =        1, time =        1.000, E =        -5.7985143836
 Cd        -8.6193227860        0.4796025608        3.4772370472
 Cd        -5.8716874224       -0.2571548448        7.1143332972
 Cd        -8.4082284194       -2.1542250876        0.3851717284
 Cd        -6.8926742936       -3.2917282401        3.9611082372
 Cd        -3.6901897979       -3.7004772687        7.3823032608
 Cd        -6.4420184970       -6.2357295955        0.4642925006
 Cd        -4.3123308359       -6.8295756537        3.9053360694
 Cd        -6.1164335984        3.8609191783        2.9057086430
 Cd        -3.6067144349        2.8812665088        6.5903159685
 Cd        -6.7534177547        1.1872547250       -0.3192291673
 Cd        -4.0444695707        0.0755165058        3.0501491001
 Cd        -1.7741906818       -0.3126739281        6.8335273080
 Cd        -6.3661238576       -1.4626482199       -3.4401707354
 Cd        -4.3614430449       -3.1217287938       -0.1745265550
 Cd        -2.2425942883       -3.6216825265        3.6335921051
 Cd         0.1786007784       -3.9616363151        7.0369344717
 Cd        -4.2694481992       -5.9880865056       -2.9988672888
 Cd        -2.2488447543       -6.7965471493        0.6791183970
 Cd         0.0677346282       -7.3030877936        3.8542757265
 Cd        -4.0801745448        7.4119092478        2.4184198718
 Cd        -1.6108852154        6.4880397415        6.2508614925
 Cd        -4.3325167486        4.8128463959       -0.6769323545
 Cd        -1.8303909836        3.6696474588        3.1588889051
 Cd         0.4898094522        3.1633723251        6.7204519449
 Cd        -4.5994762383        2.0001238904       -4.0891103239
 Cd        -2.1629324174        1.0181966736       -0.4517413966
 Cd         0.1384141917       -0.0681073501        3.1343900550
 Cd         2.6424396609       -0.6635343454        6.8958157678
 Cd        -4.1540881706       -0.5351273031       -6.9611237350
 Cd        -2.2031967331       -1.8490415166       -3.4900905073
 Cd         0.0357946587       -2.8474893812       -0.0251046349
 Cd         2.4397438859       -3.8216791480        3.5304262509
 Cd         4.5938399784       -4.2152193135        6.5946872941
 Cd        -2.6317700965       -4.5699081856       -6.0785183436
 Cd        -0.3609335615       -6.1209534345       -3.0631494754
 Cd         1.9864589432       -6.8523099261       -0.0374286584
 Cd         4.3578944611       -7.5048402812        3.0973321494
 Cd        -2.4319456620        8.2867941279       -1.2004124373
 Cd         0.1211438384        6.7911926653        2.0746291556
 Cd         2.2581348497        6.3879804142        5.9824453783
 Cd        -2.2739603524        5.5406187923       -4.1121655129
 Cd         0.1544526375        4.6148731652       -0.9822659859
 Cd         2.6164749431        3.7534575707        2.4611793069
 Cd         4.3939450934        2.5015399186        5.6447795024
 Cd        -2.3863659735        3.0936574142       -7.5399449598
 Cd        -0.1312525396        1.7709314453       -4.3473888068
 Cd         2.1531350644        0.8600804075       -0.9631961945
 Cd         4.3035427789       -0.4402373224        2.5249407025
 Cd         6.4920185828       -0.6517260853        6.0105983130
 Cd         0.4041284451       -0.5928044166       -7.0621898217
 Cd         2.1512674371       -1.8411591230       -3.9633232223
 Cd         4.1299932674       -2.9779836707       -0.5482389933
 Cd         6.9198121513       -3.7969184064        2.8856749497
 Cd         1.0695817478       -4.7690665206       -6.7907480155
 Cd         3.6506494753       -5.7624935334       -3.6176547639
 Cd         5.7328612296       -6.5639211975       -0.3327304462
 Cd         2.4549733681        8.1223769595       -1.1566424862
 Cd         4.4054057599        7.2898418461        1.7948022756
 Cd         2.3804021083        5.2451927384       -4.8086281885
 Cd         4.8188908336        4.7185065537       -1.4282883312
 Cd         6.7582495374        3.8402008644        2.0311280869
 Cd         2.6216388958        2.7829621312       -7.7033916916
 Cd         4.8491480104        1.7847547697       -4.5232246060
 Cd         6.7276611841        1.0648790416       -0.9631059183
 Cd         8.8867549868        0.4155643243        2.4348612468
 Cd         4.3617547122       -0.9228157021       -7.7309665786
 Cd         6.7427330491       -1.9756378350       -4.2012319294
 Cd         8.5291674921       -2.6208058572       -0.2527472535
 Se        -9.0550320882        0.2431515600        0.9181816671
 Se        -6.3728094435       -0.6564488821        4.4183658503
 Se        -3.9344152232       -1.3488714485        8.2969398224
 Se        -6.5830966541       -3.7426120402        1.3879692835
 Se        -4.5790801649       -4.2750108685        4.8598825367
 Se        -4.6122933969       -7.7769232260        1.5327550002
 Se        -6.6425354932        3.9855718326        0.4573910735
 Se        -4.0720213975        2.6208157445        3.9144379573
 Se        -1.6331731453        2.0119054899        7.9255130641
 Se        -6.7121404598        0.9831808368       -3.1653247136
 Se        -4.4071651757       -0.2112455962        0.3948484148
 Se        -2.0530441829       -1.1152542388        4.2594862628
 Se         0.4059698526       -1.5661236191        8.0653230550
 Se        -4.4161385340       -3.1301802357       -2.8048144654
 Se        -2.2373164468       -4.0916146627        0.9472336602
 Se         0.1529782505       -4.8126925436        4.4858780225
 Se        -2.4165290915       -7.4209683239       -2.0538913573
 Se        -0.0667629611       -7.8795007629        1.3095724392
 Se        -4.5525247559        7.5949189393       -0.0128756527
 Se        -1.8470351884        6.3633871593        3.5403316497
 Se         0.4037534358        5.8261083274        7.5863750719
 Se        -4.4663766114        4.5540602892       -3.3489613912
 Se        -2.0809660446        3.7152128365        0.3431745904
 Se         0.4983270951        2.6968888474        3.7288489751
 Se         2.7718154555        1.9958955906        7.6264798916
 Se        -4.6135316966        2.0748212801       -6.9049652159
 Se        -2.2789647844        0.8534987649       -3.1261409622
 Se         0.0146494074       -0.1632517511        0.3854458196
 Se         2.3129928881       -1.3187212455        3.9992289451
 Se         4.8632613010       -1.8842724009        7.7356965783
 Se        -2.0700449522       -1.9664605408       -6.4604402329
 Se        -0.0445857847       -3.1600708741       -2.8087805051
 Se         2.2322713559       -4.2315311177        0.7809718715
 Se         4.8362837002       -4.9532576529        4.0967407797
 Se        -0.7551729370       -6.2852417151       -5.8414063882
 Se         1.9250219944       -7.4793142999       -2.6077591033
 Se         4.2593112852       -8.3795924495        0.7362305448
 Se         0.0355642001        7.3687262447       -0.4914013854
 Se         2.3810537831        6.5252068693        3.1427917782
 Se         0.0438230593        4.4288353298       -3.5941196157
 Se         2.5164220605        3.6274218752       -0.0571894259
 Se         4.7728665679        2.4660327171        3.1252470991
 Se         0.0454848846        1.9301921051       -6.9707434613
 Se         2.2759536619        0.7649649604       -3.6570957852
 Se         4.3767733541       -0.2853559970       -0.0180302632
 Se         6.9677667399       -1.1294919849        3.5580853630
 Se         2.2372086802       -2.2684244297       -6.6838657185
 Se         4.3738584111       -3.1974851480       -3.2157298597
 Se         6.4331080738       -4.1117483373        0.4127226306
 Se         4.8520076512        7.5524423466       -0.7460741149
 Se         4.8775883253        4.5490523984       -4.0125131032
 Se         7.0858611038        3.5936955004       -0.6428862877
 Se         4.7821273624        1.5266577637       -7.5555607688
 Se         6.9189176525        0.6112025281       -3.7073605059
 Se         9.1071076685       -0.0626098395       -0.0925179446
  C         6.9966758974       -6.9498266155       -2.8612701735
  H         7.7649322095       -7.1224747738       -3.6684216540
  O         5.8446854844       -6.4675551466       -3.1399943492
  O         7.2898076371       -7.2747246272       -1.6947416618
  C         3.3950717683       -6.2672988581       -6.9491737437
  H         4.3444066225       -6.8936096686       -7.0753272229
  O         3.0189427425       -5.7911359177       -5.7829336071
  O         2.6180755857       -6.1692228210       -7.9242472352
  C         6.3106276857       -2.9078551562       -7.4910405065
  H         7.1299137504       -3.7048862282       -7.4466889051
  O         6.0084822841       -2.3184115649       -6.3482726897
  O         5.9397057301       -2.4745785879       -8.6126563113
  C         8.9774375299       -3.3708834354       -3.4296435269
  H         9.9250180562       -3.8774829974       -3.1826003730
  O         8.5687248096       -3.4152330538       -4.6047122943
  O         8.2720109716       -2.6969849209       -2.5207360108
  C         9.7980644173       -4.6251968886        2.1809940337
  H        10.6408655401       -5.3318691344        2.3887999993
  O         9.7477947973       -4.1809477975        0.9930162442
  O         9.0296529522       -4.5685167078        3.1872245163
  C        -2.8217270518       -8.8884275427        5.3598598018
  H        -2.4154187803       -9.9024293192        5.4343946394
  O        -1.9850378913       -7.9307915164        5.0425306557
  O        -4.0904179116       -8.7277351365        5.4046754415
  C         2.9969190474       -8.6916113602        5.2874283617
  H         2.6967725338       -9.0398269484        6.2934215078
  O         2.0000295379       -8.3582630587        4.5597182808
  O         4.2231970430       -8.6018636586        4.9175447339
  C         2.8792987011       -5.7053277098        8.2324192211
  H         2.3955873073       -6.3773024893        8.9303283437
  O         2.2197580306       -4.8092888829        7.6166625451
  O         4.1496933633       -5.9039996246        8.1540656864
  C        -2.5347106425       -5.9173491316        8.5219939631
  H        -2.0052498086       -6.7390725628        9.0096019785
  O        -1.9211859324       -5.2588413909        7.5985138594
  O        -3.6522255556       -5.5088971744        8.8931630774
  C        -6.8630658186        2.3027076877        7.3891922908
  H        -7.2086193538        3.3071349018        7.3885257928
  O        -5.6219126614        2.1592467863        7.5340502869
  O        -7.6698726750        1.3705876692        7.2000393440
  C        -4.1169999035        6.2827978006        7.2281816510
  H        -5.2418933127        6.2896177269        7.3832000201
  O        -3.5272399608        5.2293191697        6.7740794023
  O        -3.5913479543        7.4674570213        7.3181910014
  C        -6.2567382121        7.1462347691        4.0780962964
  H        -7.2111390447        7.1649409639        4.6689854642
  O        -5.8091577026        6.0484836461        3.6282729229
  O        -5.6135459084        8.2211303117        3.8494686672
  C        -9.2742099826        2.9617511017        4.4604803668
  H        -9.7855372140        3.8838940690        4.7760086716
  O        -8.0591320197        3.0118805361        4.1195062681
  O       -10.0816943860        1.9798831043        4.3925932261
  C        -9.6032727502       -3.5282162780        4.2551628700
  H       -10.5971720209       -3.6001750875        4.7566807035
  O        -9.3835723260       -2.7227841167        3.2943640956
  O        -8.6799029566       -4.3024117461        4.7635783191
  C        -5.4081383983       -6.0792273393       -6.1561875095
  H        -6.0546960796       -6.5859836395       -6.8890942905
  O        -5.3114699843       -6.5043022327       -4.9660267219
  O        -4.7991685219       -5.0929324599       -6.6855135228
  C        -7.4874895131       -7.2705627355       -1.8347959251
  H        -7.8388434959       -7.7173330376       -2.7530342297
  O        -6.3890542404       -6.5551414837       -1.8847166350
  O        -8.0720870854       -7.4411896993       -0.7461235885
  C        -9.2562687261       -3.4270016901       -2.1219728191
  H        -9.5270787848       -4.0663584857       -2.9594189931
  O        -8.1700672814       -2.7555561041       -2.2726454197
  O        -9.8245042919       -3.4942290309       -1.0094938568
  C        -6.7207061950       -1.5101505488       -7.0045939087
  H        -7.7450574417       -1.9674181007       -7.1698505571
  O        -6.3199495706       -1.2782873570       -5.7997239153
  O        -6.0640517015       -1.2638045283       -8.0159309855
  C        -1.9629019881        5.6954888554       -7.4853119335
  H        -1.7770888886        6.7764005651       -7.4923242406
  O        -2.4612043889        5.1871556204       -6.4092428767
  O        -1.7561418016        5.0413129851       -8.5288050391
  C        -1.7168877869        9.0075032545       -3.7839145661
  H        -1.3493405476        9.2660238074       -4.8465614694
  O        -1.7699221275        7.7202660375       -3.5248291033
  O        -1.9636759741        9.8898855965       -2.9411726929
  C         2.5062355876        8.6538826063       -4.1272907079
  H         2.7131102182        9.0638249498       -5.0476060874
  O         2.0944288243        7.4538854441       -4.0305692567
  O         2.6627494974        9.4114714024       -3.1557063325
  C         1.7411525874        5.3672421818       -8.1968623386
  H         1.4358383610        6.4416008070       -8.3632925476
  O         2.2780448284        5.0769663824       -7.0419084304
  O         1.5311051185        4.4837751206       -9.0178987565
  C         9.4768759726        2.6096268204        3.9000014400
  H         9.6131090334        3.4671477718        4.5843902861
  O         8.5285681557        2.7174415238        3.0496387537
  O        10.1889022774        1.5404644916        4.0335342478
  C         6.6326577846        7.0382999555        3.3282051678
  H         7.5082674956        7.1289998248        4.0070788575
  O         6.4947176158        6.1608228749        2.4468051347
  O         5.7959394127        7.9031959634        3.5817811849
  C         4.7447686405        5.8524808064        6.9353937431
  H         5.7085862008        5.7040540943        7.4370666698
  O         4.3288532188        4.9886995263        6.0815917887
  O         4.1465747000        6.9226616153        7.1376906522
  C         7.5603366186        1.7452811931        7.1878777903
  H         8.1158840311        2.6116602203        7.6593692779
  O         6.7462390214        2.0302498361        6.2246171534
  O         7.8437773883        0.5823973505        7.5897903363
     227
 i =        2, time =        2.000, E =        -5.8401322683
 Cd        -8.6169218880        0.4781596360        3.4770365810
 Cd        -5.8713683710       -0.2574938667        7.1133971480
 Cd        -8.4089154828       -2.1555314273        0.3834265597
 Cd        -6.8894770719       -3.2936150967        3.9621962825