     227
 i =        0, time =        0.000, E =        -0.7204551911
 Cd        -8.6216924880        0.4810107428        3.4775887729
 Cd        -5.8723589632       -0.2566559957        7.1151373767
 Cd        -8.4076147924       -2.1531404527        0.3867588804
 Cd        -6.8957642261       -3.2896665849        3.9600318291
 Cd        -3.6930098048       -3.6992689615        7.3819491709
 Cd        -6.4429261463       -6.2347087238        0.4622469067
 Cd        -4.3123952394       -6.8285875372        3.9039095072
 Cd        -6.1141073353        3.8626235599        2.9066844924
 Cd        -3.6048790416        2.8797284733        6.5917986711
 Cd        -6.7531255596        1.1841266196       -0.3182182747
 Cd        -4.0437606329        0.0729837467        3.0511954168
 Cd        -1.7753257667       -0.3121054857        6.8316599018
 Cd        -6.3661028473       -1.4630135273       -3.4383357626
 Cd        -4.3602814436       -3.1214810613       -0.1759283953
 Cd        -2.2424276819       -3.6242998489        3.6335413818
 Cd         0.1757294635       -3.9625201566        7.0364714760
 Cd        -4.2692200317       -5.9860442556       -3.0005266361
 Cd        -2.2482225396       -6.7972628816        0.6786391664
 Cd         0.0669003827       -7.3030327295        3.8545421700
 Cd        -4.0792754193        7.4105475565        2.4175118797
 Cd        -1.6116442377        6.4880648240        6.2478272306
 Cd        -4.3308002626        4.8127262164       -0.6762739309
 Cd        -1.8326132452        3.6694977750        3.1598212265
 Cd         0.4939817277        3.1637060931        6.7202662426
 Cd        -4.5980154021        1.9988297698       -4.0880170010
 Cd        -2.1651194586        1.0165564496       -0.4536921834
 Cd         0.1376109507       -0.0659106884        3.1336818174
 Cd         2.6419074521       -0.6636939286        6.8958319365
 Cd        -4.1515129292       -0.5348426091       -6.9620217917
 Cd        -2.2012490343       -1.8491984656       -3.4894107829
 Cd         0.0359311218       -2.8494155653       -0.0264680683
 Cd         2.4407298775       -3.8224684908        3.5289587884
 Cd         4.5907434619       -4.2169180472        6.5928471603
 Cd        -2.6321953796       -4.5685798778       -6.0773989300
 Cd        -0.3638438279       -6.1221236347       -3.0620735359
 Cd         1.9882729153       -6.8506852632       -0.0376753302
 Cd         4.3604701588       -7.5063202656        3.0981086138
 Cd        -2.4313710890        8.2839908015       -1.2010761441
 Cd         0.1210964618        6.7915494583        2.0748938605
 Cd         2.2602783261        6.3879934074        5.9824457591
 Cd        -2.2743307721        5.5403016700       -4.1096429978
 Cd         0.1552258413        4.6164378819       -0.9814446932
 Cd         2.6173372932        3.7540356816        2.4616712460
 Cd         4.3934694910        2.5024270436        5.6448470259
 Cd        -2.3839877703        3.0961459608       -7.5397423510
 Cd        -0.1308699873        1.7716472388       -4.3458913396
 Cd         2.1522040622        0.8595996928       -0.9600505658
 Cd         4.3027041934       -0.4425155449        2.5248589789
 Cd         6.4943132815       -0.6514444341        6.0110723312
 Cd         0.4032906214       -0.5920449882       -7.0625722312
 Cd         2.1504065746       -1.8410095193       -3.9631978812
 Cd         4.1282053355       -2.9764966895       -0.5499119195
 Cd         6.9189885741       -3.8001688729        2.8840486736
 Cd         1.0693858855       -4.7693596381       -6.7909688629
 Cd         3.6529341800       -5.7620820022       -3.6150795142
 Cd         5.7341856059       -6.5625995016       -0.3323817960
 Cd         2.4532379782        8.1225833618       -1.1556872380
 Cd         4.4025673150        7.2904811152        1.7928276254
 Cd         2.3800547108        5.2453457502       -4.8107637235
 Cd         4.8184663347        4.7191125514       -1.4277792117
 Cd         6.7589411702        3.8390778732        2.0295448973
 Cd         2.6210634084        2.7844913241       -7.7035228004
 Cd         4.8495943395        1.7843685348       -4.5225056138
 Cd         6.7261500983        1.0662237140       -0.9642295531
 Cd         8.8881450478        0.4141445330        2.4369093904
 Cd         4.3615782352       -0.9213178924       -7.7328888960
 Cd         6.7438649008       -1.9767569930       -4.2031112584
 Cd         8.5272445020       -2.6218905711       -0.2551455218
 Se        -9.0557725106        0.2424574140        0.9180313808
 Se        -6.3745872764       -0.6570220647        4.4225742627
 Se        -3.9358548519       -1.3506397678        8.2925868769
 Se        -6.5830028390       -3.7408669090        1.3890860046
 Se        -4.5802302415       -4.2716541219        4.8585926421
 Se        -4.6110671623       -7.7792240778        1.5343213278
 Se        -6.6407812351        3.9866809498        0.4586064126
 Se        -4.0705866514        2.6241591830        3.9150270775
 Se        -1.6315747320        2.0143859544        7.9219454430
 Se        -6.7106235468        0.9827493806       -3.1628202938
 Se        -4.4077684895       -0.2106461950        0.3970531668
 Se        -2.0534879979       -1.1190641497        4.2604482105
 Se         0.4069246601       -1.5676855049        8.0617057342
 Se        -4.4126107232       -3.1307459794       -2.8028288282
 Se        -2.2371864822       -4.0884616040        0.9473336128
 Se         0.1541797359       -4.8148952714        4.4843326207
 Se        -2.4147106009       -7.4199706225       -2.0529393442
 Se        -0.0662571417       -7.8800811154        1.3078284855
 Se        -4.5519687636        7.5920037884       -0.0122560791
 Se        -1.8482840651        6.3647212661        3.5390459072
 Se         0.4006735392        5.8241498358        7.5878867146
 Se        -4.4655945585        4.5529209660       -3.3484418515
 Se        -2.0798083538        3.7153034916        0.3451575142
 Se         0.4973892782        2.6967113851        3.7286137790
 Se         2.7724753484        1.9958260876        7.6298945277
 Se        -4.6126224962        2.0736182894       -6.9031574659
 Se        -2.2770211290        0.8531533747       -3.1284312065
 Se         0.0138865169       -0.1636477002        0.3858468104
 Se         2.3115473387       -1.3198431962        4.0017354986
 Se         4.8624545925       -1.8855864388        7.7371297607
 Se        -2.0700877949       -1.9675257511       -6.4603372509
 Se        -0.0447057629       -3.1582708631       -2.8090856920
 Se         2.2343306950       -4.2299664240        0.7817840723
 Se         4.8342987615       -4.9516929708        4.0974643468
 Se        -0.7556003326       -6.2829108386       -5.8406699955
 Se         1.9243057511       -7.4784768035       -2.6074198353
 Se         4.2543989663       -8.3809591814        0.7363809319
 Se         0.0386925703        7.3677075300       -0.4939635450
 Se         2.3791568525        6.5289221229        3.1400383851
 Se         0.0465974103        4.4270318221       -3.5936563407
 Se         2.5167269427        3.6273521599       -0.0581806204
 Se         4.7705604635        2.4670139639        3.1233546104
 Se         0.0435933033        1.9323944164       -6.9695738842
 Se         2.2733127965        0.7623703678       -3.6584263160
 Se         4.3816175435       -0.2841549253       -0.0177063702
 Se         6.9670500347       -1.1290204494        3.5565582379
 Se         2.2410869402       -2.2702007814       -6.6798205275
 Se         4.3723294721       -3.1971869108       -3.2130677403
 Se         6.4331938555       -4.1098532443        0.4136420186
 Se         4.8503033307        7.5509093293       -0.7463548497
 Se         4.8776288797        4.5477652435       -4.0091414448
 Se         7.0830986217        3.5950723552       -0.6434567968
 Se         4.7810064642        1.5273410534       -7.5566303287
 Se         6.9188050062        0.6130038217       -3.7081238627
 Se         9.1066871843       -0.0609359671       -0.0919647969
  C         6.9955771113       -6.9586634775       -2.8583426301
  H         7.7780160969       -7.1271873265       -3.6573399650
  O         5.8389952916       -6.4652991204       -3.1445809228
  O         7.2920676004       -7.2683568805       -1.6893132711
  C         3.3939431960       -6.2668607509       -6.9513074648
  H         4.3245440932       -6.8689211647       -7.0591687882
  O         3.0202466073       -5.7860511295       -5.7843136273
  O         2.6220129789       -6.1746538788       -7.9242101403
  C         6.3116555909       -2.9071154185       -7.4921130606
  H         7.0978863851       -3.7212906458       -7.4285512081
  O         6.0096715894       -2.3219711192       -6.3505932827
  O         5.9403243477       -2.4750431756       -8.6116316973
  C         8.9837561036       -3.3697375837       -3.4349055328
  H         9.9249943929       -3.8864043165       -3.1840078659
  O         8.5659407989       -3.4209184445       -4.6048832464
  O         8.2714489672       -2.6971151254       -2.5207012617
  C         9.7902109758       -4.6282247391        2.1768529346
  H        10.6284324694       -5.3337138149        2.3552924638
  O         9.7484501532       -4.1824896055        0.9942458601
  O         9.0219926648       -4.5705851174        3.1873629795
  C        -2.8252708508       -8.8894178348        5.3653894160
  H        -2.3915771747       -9.8892286280        5.4446685031
  O        -1.9808601030       -7.9304545651        5.0436955975
  O        -4.0908415257       -8.7280019527        5.4030844137
  C         3.0047406823       -8.6887063298        5.2919739424
  H         2.6853413808       -9.0312323512        6.2714246943
  O         1.9985977812       -8.3553887881        4.5599054594
  O         4.2197147413       -8.6069092298        4.9235206312
  C         2.8732291572       -5.7090624943        8.2322507888
  H         2.4095730423       -6.3582442170        8.9295273658
  O         2.2236878889       -4.8031284854        7.6183804854
  O         4.1525405945       -5.8988692439        8.1468427445
  C        -2.5324052264       -5.9090323801        8.5168983878
  H        -2.0058427467       -6.7599986745        9.0204193621
  O        -1.9189018681       -5.2527647032        7.5983339134
  O        -3.6521974131       -5.4981014961        8.8936623702
  C        -6.8661340661        2.3082426882        7.3884767521
  H        -7.2433530482        3.2983326111        7.3747512577
  O        -5.6189307919        2.1553364867        7.5292857639
  O        -7.6694328727        1.3672322100        7.2032576312
  C        -4.1128935570        6.2776012356        7.2258109093
  H        -5.2184092536        6.2949225170        7.4003980339
  O        -3.5215502414        5.2331222329        6.7794929280
  O        -3.5956064510        7.4679880815        7.3184340370
  C        -6.2584500423        7.1467273309        4.0778865765
  H        -7.2018864753        7.1620259062        4.6862261037
  O        -5.8042352338        6.0508881806        3.6277903665
  O        -5.6141473350        8.2227071687        3.8530055117
  C        -9.2670155991        2.9624473135        4.4549609073
  H        -9.7760873251        3.8307467380        4.7753730710
  O        -8.0580447847        3.0137717908        4.1153681461
  O       -10.0869615960        1.9755230626        4.3964141791
  C        -9.5997958208       -3.5202239981        4.2555074891
  H       -10.6284324694       -3.6062117458        4.7363993397
  O        -9.3836198173       -2.7271085544        3.2939504316
  O        -8.6749593009       -4.3055307223        4.7674147240
  C        -5.4063829718       -6.0836320759       -6.1576393485
  H        -6.0390997038       -6.5934387315       -6.8768176703
  O        -5.3157147411       -6.5042627408       -4.9638375967
  O        -4.7997118332       -5.0931497246       -6.6842330004
  C        -7.4812021438       -7.2683192216       -1.8337008205
  H        -7.8430239833       -7.7214409635       -2.7403108931
  O        -6.3847231004       -6.5596142310       -1.8855223803
  O        -8.0870004405       -7.4369608581       -0.7449951352
  C        -9.2637717352       -3.4248031045       -2.1287629167
  H        -9.5435102925       -4.0726156799       -2.9624854104
  O        -8.1685743898       -2.7562864935       -2.2769679175
  O        -9.8293124780       -3.4993302663       -1.0042472880
  C        -6.7198117275       -1.5155721631       -7.0057360974
  H        -7.7266400310       -1.9701098143       -7.1795729881
  O        -6.3208037730       -1.2812141421       -5.7891801227
  O        -6.0546670581       -1.2647410752       -8.0219575549
  C        -1.9610306020        5.6962737072       -7.4797868569
  H        -1.8068881661        6.7616764611       -7.4798700689
  O        -2.4613788677        5.1953402046       -6.4147373301
  O        -1.7592038190        5.0404242691       -8.5376948407
  C        -1.7153677193        9.0065729983       -3.7807068554
  H        -1.3518565997        9.2891789052       -4.8285272378
  O        -1.7735635219        7.7204009534       -3.5311974415
  O        -1.9589811591        9.8892286280       -2.9296575010
  C         2.5176986766        8.6527359013       -4.1276241396
  H         2.7356319561        9.0838176512       -5.0545617483
  O         2.0941304229        7.4607563111       -4.0382054964
  O         2.6632020791        9.4136986823       -3.1567247192
  C         1.7405814703        5.3615037054       -8.2026998584
  H         1.4592813282        6.4433815072       -8.3446733349
  O         2.2712544771        5.0744229803       -7.0359036782
  O         1.5374971892        4.4786315137       -9.0204193621
  C         9.4791869119        2.6134878200        3.9079418032
  H         9.6264681644        3.4611325178        4.5867541287
  O         8.5294682966        2.7206869475        3.0468687327
  O        10.1884170796        1.5361363159        4.0354546634
  C         6.6320899766        7.0427804887        3.3240585285
  H         7.5183451153        7.1103565644        4.0025867163
  O         6.4921259472        6.1579139584        2.4473334656
  O         5.8014508194        7.8970951585        3.5804466065
  C         4.7468288793        5.8510846562        6.9391041765
  H         5.6837062732        5.7110173508        7.4566454645
  O         4.3315486404        4.9881730889        6.0840680113
  O         4.1390624477        6.9214380767        7.1338855679
  C         7.5642974957        1.7429307679        7.1823006621
  H         8.1116275708        2.6102062210        7.6466333920
  O         6.7423080014        2.0330978891        6.2208765696
  O         7.8434776238        0.5800715711        7.5931108165
     227
 i =        1, time =        1.000, E =        -0.7493192286
 Cd        -8.6193129844        0.4795803394        3.4772662344
 Cd        -5.8717519386       -0.2571441978        7.1143047313
 Cd        -8.4082272701       -2.1542613324        0.3851470519
 Cd        -6.8926472328       -3.2916941162        3.9611143443
 Cd        -3.6901953319       -3.7005103211        7.3822647090
 Cd        -6.4420341889       -6.2357135913        0.4643052143
 Cd        -4.3123224871       -6.8295505256        3.9053843855
 Cd        -6.1164520063        3.8609123508        2.9057687571
 Cd        -3.6067504950        2.8812802172        6.5902722623
 Cd        -6.7534099226        1.1872606177       -0.3192303465
 Cd        -4.0444867911        0.0755152533        3.0501319184
 Cd        -1.7741933305       -0.3127161635        6.8334968901
 Cd        -6.3661321134       -1.4627401118       -3.4401668153
 Cd        -4.3614811894       -3.1217050040       -0.1745158131
 Cd        -2.2425857285       -3.6217310570        3.6335827389
 Cd         0.1785536276       -3.9616541857        7.0369300739
 Cd        -4.2694754312       -5.9880206900       -2.9988665653
 Cd        -2.2489043834       -6.7965091967        0.6791003513
 Cd         0.0677110150       -7.3031250136        3.8542936503
 Cd        -4.0801161333        7.4118998285        2.4184823504
 Cd        -1.6109223334        6.4880880790        6.2508124131
 Cd        -4.3325045548        4.8128614269       -0.6769214521
 Cd        -1.8303860321        3.6696680348        3.1588661163
 Cd         0.4898108697        3.1633876515        6.7204099922
 Cd        -4.5994048515        2.0001258183       -4.0891520659
 Cd        -2.1629454596        1.0182261147       -0.4517336855
 Cd         0.1384062403       -0.0680801855        3.1343768487
 Cd         2.6424390694       -0.6635230635        6.8957703168
 Cd        -4.1540827739       -0.5351162411       -6.9611200823
 Cd        -2.2032020223       -1.8490156298       -3.4901163815
 Cd         0.0357894190       -2.8474859010       -0.0251065130
 Cd         2.4397577591       -3.8217306527        3.5304087365
 Cd         4.5938439154       -4.2152253338        6.5946844743
 Cd        -2.6317991924       -4.5698751765       -6.0785038214
 Cd        -0.3609194774       -6.1208992289       -3.0631540506
 Cd         1.9864824065       -6.8522880027       -0.0374137801
 Cd         4.3579076848       -7.5047480312        3.0972989205
 Cd        -2.4319004792        8.2868208187       -1.2004282562
 Cd         0.1211431223        6.7912117813        2.0745603783
 Cd         2.2581412331        6.3879996286        5.9823539589
 Cd        -2.2739267179        5.5406470633       -4.1121785065
 Cd         0.1544506381        4.6148735661       -0.9822303003
 Cd         2.6164529539        3.7535022253        2.4612434005
 Cd         4.3939492997        2.5015395100        5.6448114001
 Cd        -2.3863178620        3.0936230215       -7.5399677128
 Cd        -0.1312480557        1.7709301252       -4.3473739710
 Cd         2.1531140311        0.8601035429       -0.9631912130
 Cd         4.3035697890       -0.4402309917        2.5249964857
 Cd         6.4920101003       -0.6517074763        6.0106395435
 Cd         0.4040731537       -0.5928139597       -7.0622140595
 Cd         2.1512432558       -1.8411827290       -3.9633162898
 Cd         4.1299945286       -2.9779663255       -0.5482399032
 Cd         6.9198052441       -3.7968926790        2.8857369539
 Cd         1.0695830987       -4.7690016143       -6.7907812988
 Cd         3.6506528944       -5.7624798348       -3.6176237772
 Cd         5.7328115974       -6.5638741342       -0.3327051597
 Cd         2.4549103470        8.1224077603       -1.1566434481
 Cd         4.4054205710        7.2898628860        1.7947868232
 Cd         2.3803995893        5.2451785885       -4.8085862682
 Cd         4.8188465418        4.7185257694       -1.4282337688
 Cd         6.7582518437        3.8402207012        2.0311204926
 Cd         2.6215730750        2.7829772287       -7.7033960567
 Cd         4.8490592569        1.7847887817       -4.5232641803
 Cd         6.7276297480        1.0648196428       -0.9630998239
 Cd         8.8867588851        0.4155534569        2.4348878687
 Cd         4.3617254195       -0.9228948495       -7.7309879227
 Cd         6.7427096446       -1.9756425770       -4.2012150432
 Cd         8.5291814551       -2.6208044450       -0.2527233855
 Se        -9.0551569155        0.2432756912        0.9181197119
 Se        -6.3728328748       -0.6564271382        4.4183920135
 Se        -3.9343625388       -1.3488343442        8.2971318651
 Se        -6.5830890426       -3.7426459586        1.3879255749
 Se        -4.5790906251       -4.2750803013        4.8599487933
 Se        -4.6123214923       -7.7770878952        1.5327139705
 Se        -6.6426663056        3.9855841907        0.4572548535
 Se        -4.0720574140        2.6208027621        3.9145027456
 Se        -1.6331082028        2.0119755206        7.9257048581
 Se        -6.7123529674        0.9833107944       -3.1652712747
 Se        -4.4072125642       -0.2112713971        0.3948240332
 Se        -2.0530096505       -1.1152164277        4.2595351358
 Se         0.4059564878       -1.5661023119        8.0654476025
 Se        -4.4161751626       -3.1302669521       -2.8048816254
 Se        -2.2372632512       -4.0916303511        0.9472455046
 Se         0.1529440111       -4.8126699525        4.4859134020
 Se        -2.4165124188       -7.4211413893       -2.0538644206
 Se        -0.0666807650       -7.8796751445        1.3095790274
 Se        -4.5527140214        7.5949578550       -0.0129981151
 Se        -1.8471614747        6.3634268421        3.5404467360
 Se         0.4037762784        5.8260854331        7.5866107645
 Se        -4.4665396530        4.5541072102       -3.3489695506
 Se        -2.0809652501        3.7151993294        0.3431778220
 Se         0.4983758799        2.6968383119        3.7289256184
 Se         2.7718275782        1.9959110853        7.6266203199
 Se        -4.6137010891        2.0748552843       -6.9049939153
 Se        -2.2790043176        0.8534964408       -3.1261582339
 Se         0.0146894148       -0.1632624878        0.3854663428
 Se         2.3129995850       -1.3186371707        3.9993297320
 Se         4.8633102301       -1.8842569085        7.7358428689
 Se        -2.0699733644       -1.9664817424       -6.4604730157
 Se        -0.0445242155       -3.1601394967       -2.8087792014
 Se         2.2322501466       -4.2315709971        0.7809896654
 Se         4.8363072046       -4.9533347152        4.0967488385
 Se        -0.7551834554       -6.2854438214       -5.8414140051
 Se         1.9250289084       -7.4794543735       -2.6078228585
 Se         4.2592865967       -8.3797867334        0.7361491085
 Se         0.0355264777        7.3687801712       -0.4914444275
 Se         2.3811181503        6.5252045455        3.1429351131
 Se         0.0438677722        4.4288458183       -3.5941749122
 Se         2.5164460661        3.6274122709       -0.0573411376
 Se         4.7729445191        2.4659673263        3.1252091186
 Se         0.0454693372        1.9303054768       -6.9708542195
 Se         2.2760182941        0.7650258378       -3.6571165654
 Se         4.3768344218       -0.2853482592       -0.0181329571
 Se         6.9677972182       -1.1295110953        3.5580163708
 Se         2.2373142155       -2.2685413697       -6.6839110967
 Se         4.3739255733       -3.1974859584       -3.2157692098
 Se         6.4330948076       -4.1117777320        0.4126077554
 Se         4.8522262165        7.5524584852       -0.7461553988
 Se         4.8776521969        4.5490904436       -4.0126413882
 Se         7.0859941001        3.5938029310       -0.6428942773
 Se         4.7823320261        1.5267641416       -7.5555703020
 Se         6.9190909228        0.6111969737       -3.7073645165
 Se         9.1072221495       -0.0625637072       -0.0926113781
  C         6.9966781217       -6.9498387683       -2.8612696103
  H         7.7649322095       -7.1224747738       -3.6684216540
  O         5.8450215166       -6.4677135658       -3.1399757317
  O         7.2903929662       -7.2750037715       -1.6952554844
  C         3.3950663576       -6.2673055107       -6.9491803208
  H         4.3444066225       -6.8936096686       -7.0753272229
  O         3.0190155880       -5.7912774481       -5.7833692179
  O         2.6182635650       -6.1693955946       -7.9243870064
  C         6.3106279209       -2.9078510788       -7.4910541571
  H         7.1299137504       -3.7048862282       -7.4466889051
  O         6.0084763110       -2.3185326397       -6.3486525458
  O         5.9398934618       -2.4747560603       -8.6127628684
  C         8.9774472834       -3.3708809777       -3.4296483061
  H         9.9250180562       -3.8774829974       -3.1826003730
  O         8.5689615571       -3.4154167258       -4.6047704345
  O         8.2721687675       -2.6971186348       -2.5210497290
  C         9.7980736384       -4.6252005070        2.1809976915
  H        10.6408655401       -5.3318691344        2.3887999993
  O         9.7481380087       -4.1811760994        0.9932098067
  O         9.0301652260       -4.5687106478        3.1873130358
  C        -2.8217307287       -8.8884371922        5.3598597384
  H        -2.4154187803       -9.9024293192        5.4343946394
  O        -1.9851735871       -7.9308837550        5.0426467167
  O        -4.0904023245       -8.7279099455        5.4048165948
  C         2.9969215934       -8.6916215382        5.2874267853
  H         2.6967725338       -9.0398269484        6.2934215078
  O         2.0003407850       -8.3584704678        4.5598672067
  O         4.2231262653       -8.6024425880        4.9184600991
  C         2.8793038360       -5.7053270422        8.2324270963
  H         2.3955873073       -6.3773024893        8.9303283437
  O         2.2201034352       -4.8095094975        7.6168405037
  O         4.1496311771       -5.9042604313        8.1543123301
  C        -2.5347130165       -5.9173479715        8.5220056987
  H        -2.0052498086       -6.7390725628        9.0096019785
  O        -1.9210866956       -5.2591091619        7.5986094644
  O        -3.6522202948       -5.5091460557        8.8933767483
  C        -6.8630678253        2.3027061107        7.3892056761
  H        -7.2086193538        3.3071349018        7.3885257928
  O        -5.6222050853        2.1593317782        7.5342343946
  O        -7.6700559724        1.3707585417        7.2000866893
  C        -4.1169967283        6.2828038244        7.2281909416
  H        -5.2418933127        6.2896177269        7.3832000201
  O        -3.5275203568        5.2294581391        6.7742118440
  O        -3.5915022900        7.4675359296        7.3182822768
  C        -6.2567427881        7.1462430385        4.0780928559
  H        -7.2111390447        7.1649409639        4.6689854642
  O        -5.8092377940        6.0487696155        3.6284678656
  O        -5.6139274478        8.2213369679        3.8498192711
  C        -9.2742204122        2.9617569748        4.4604771840
  H        -9.7855372140        3.8838940690        4.7760086716
  O        -8.0592961737        3.0118869222        4.1196255691
  O       -10.0819901400        1.9801824273        4.3927798329
  C        -9.6032798875       -3.5282203137        4.2551671119
  H       -10.5971720209       -3.6001750875        4.7566807035
  O        -9.3837518750       -2.7227940447        3.2944082934
  O        -8.6805004237       -4.3027496042        4.7638515261
  C        -5.4081382551       -6.0792342759       -6.1561949167
  H        -6.0546960796       -6.5859836395       -6.8890942905
  O        -5.3116914734       -6.5044244435       -4.9664160325
  O        -4.7995400205       -5.0930301705       -6.6856272625
  C        -7.4874939985       -7.2705738777       -1.8347940388
  H        -7.8388434959       -7.7173330376       -2.7530342297
  O        -6.3892172745       -6.5552361254       -1.8849256324
  O        -8.0722971969       -7.4413424353       -0.7462767723
  C        -9.2562789252       -3.4269978389       -2.1219760906
  H        -9.5270787848       -4.0663584857       -2.9594189931
  O        -8.1702024760       -2.7556411630       -2.2726372096
  O        -9.8246635707       -3.4943647013       -1.0096394765
  C        -6.7207103029       -1.5101439127       -7.0046012475
  H        -7.7450574417       -1.9674181007       -7.1698505571
  O        -6.3200474564       -1.2783599180       -5.8000557224
  O        -6.0644157210       -1.2639560487       -8.0161378083
  C        -1.9629095470        5.6954905888       -7.4853190516
  H        -1.7770888886        6.7764005651       -7.4923242406
  O        -2.4612321532        5.1873787893       -6.4094903491
  O        -1.7560196718        5.0417429469       -8.5290328196
  C        -1.7168952308        9.0075115359       -3.7839137598
  H        -1.3493405476        9.2660238074       -4.8465614694
  O        -1.7698479147        7.7206373595       -3.5249477137
  O        -1.9636367382        9.8900591039       -2.9413546542
  C         2.5062420843        8.6538897904       -4.1272905641
  H         2.7131102182        9.0638249498       -5.0476060874
  O         2.0944154032        7.4541987519       -4.0305136136
  O         2.6627606674        9.4116296390       -3.1559462540
  C         1.7411613687        5.3672431502       -8.1968692235
  H         1.4358383610        6.4416008070       -8.3632925476
  O         2.2779983028        5.0771655028       -7.0424517058
  O         1.5310215833        4.4839938246       -9.0180757188
  C         9.4768885897        2.6096282865        3.8999979814
  H         9.6131090334        3.4671477718        4.5843902861
  O         8.5288413698        2.7174980345        3.0498550586
  O        10.1890903427        1.5406232028        4.0337564714
  C         6.6326624610        7.0383095213        3.3282011037
  H         7.5082674956        7.1289998248        4.0070788575
  O         6.4948588658        6.1610235253        2.4469190715
  O         5.7961722286        7.9033002640        3.5820291996
  C         4.7447659384        5.8524850511        6.9354030904
  H         5.7085862008        5.7040540943        7.4370666698
  O         4.3290048421        4.9887821141        6.0816436446
  O         4.1470029892        6.9227855587        7.1379507458
  C         7.5603388584        1.7452807294        7.1878884577
  H         8.1158840311        2.6116602203        7.6593692779
  O         6.7464369108        2.0302788409        6.2247061222
  O         7.8439203722        0.5825251875        7.5899463135
     227
 i =        2, time =        2.000, E =        -0.8208637721
 Cd        -8.6168849250        0.4780718894        3.4771538308
 Cd        -5.8716248406       -0.2574511766        7.1132833153
 Cd        -8.4089105313       -2.1556737476        0.3833298547
 Cd        -6.8893743867       -3.2934808483        3.9622231293