     227
 i =        0, time =        0.000, E =        -3.9591318227
 Cd        -8.6216924880        0.4810107428        3.4775887729
 Cd        -5.8723589632       -0.2566559957        7.1151373767
 Cd        -8.4076147924       -2.1531404527        0.3867588804
 Cd        -6.8957642261       -3.2896665849        3.9600318291
 Cd        -3.6930098048       -3.6992689615        7.3819491709
 Cd        -6.4429261463       -6.2347087238        0.4622469067
 Cd        -4.3123952394       -6.8285875372        3.9039095072
 Cd        -6.1141073353        3.8626235599        2.9066844924
 Cd        -3.6048790416        2.8797284733        6.5917986711
 Cd        -6.7531255596        1.1841266196       -0.3182182747
 Cd        -4.0437606329        0.0729837467        3.0511954168
 Cd        -1.7753257667       -0.3121054857        6.8316599018
 Cd        -6.3661028473       -1.4630135273       -3.4383357626
 Cd        -4.3602814436       -3.1214810613       -0.1759283953
 Cd        -2.2424276819       -3.6242998489        3.6335413818
 Cd         0.1757294635       -3.9625201566        7.0364714760
 Cd        -4.2692200317       -5.9860442556       -3.0005266361
 Cd        -2.2482225396       -6.7972628816        0.6786391664
 Cd         0.0669003827       -7.3030327295        3.8545421700
 Cd        -4.0792754193        7.4105475565        2.4175118797
 Cd        -1.6116442377        6.4880648240        6.2478272306
 Cd        -4.3308002626        4.8127262164       -0.6762739309
 Cd        -1.8326132452        3.6694977750        3.1598212265
 Cd         0.4939817277        3.1637060931        6.7202662426
 Cd        -4.5980154021        1.9988297698       -4.0880170010
 Cd        -2.1651194586        1.0165564496       -0.4536921834
 Cd         0.1376109507       -0.0659106884        3.1336818174
 Cd         2.6419074521       -0.6636939286        6.8958319365
 Cd        -4.1515129292       -0.5348426091       -6.9620217917
 Cd        -2.2012490343       -1.8491984656       -3.4894107829
 Cd         0.0359311218       -2.8494155653       -0.0264680683
 Cd         2.4407298775       -3.8224684908        3.5289587884
 Cd         4.5907434619       -4.2169180472        6.5928471603
 Cd        -2.6321953796       -4.5685798778       -6.0773989300
 Cd        -0.3638438279       -6.1221236347       -3.0620735359
 Cd         1.9882729153       -6.8506852632       -0.0376753302
 Cd         4.3604701588       -7.5063202656        3.0981086138
 Cd        -2.4313710890        8.2839908015       -1.2010761441
 Cd         0.1210964618        6.7915494583        2.0748938605
 Cd         2.2602783261        6.3879934074        5.9824457591
 Cd        -2.2743307721        5.5403016700       -4.1096429978
 Cd         0.1552258413        4.6164378819       -0.9814446932
 Cd         2.6173372932        3.7540356816        2.4616712460
 Cd         4.3934694910        2.5024270436        5.6448470259
 Cd        -2.3839877703        3.0961459608       -7.5397423510
 Cd        -0.1308699873        1.7716472388       -4.3458913396
 Cd         2.1522040622        0.8595996928       -0.9600505658
 Cd         4.3027041934       -0.4425155449        2.5248589789
 Cd         6.4943132815       -0.6514444341        6.0110723312
 Cd         0.4032906214       -0.5920449882       -7.0625722312
 Cd         2.1504065746       -1.8410095193       -3.9631978812
 Cd         4.1282053355       -2.9764966895       -0.5499119195
 Cd         6.9189885741       -3.8001688729        2.8840486736
 Cd         1.0693858855       -4.7693596381       -6.7909688629
 Cd         3.6529341800       -5.7620820022       -3.6150795142
 Cd         5.7341856059       -6.5625995016       -0.3323817960
 Cd         2.4532379782        8.1225833618       -1.1556872380
 Cd         4.4025673150        7.2904811152        1.7928276254
 Cd         2.3800547108        5.2453457502       -4.8107637235
 Cd         4.8184663347        4.7191125514       -1.4277792117
 Cd         6.7589411702        3.8390778732        2.0295448973
 Cd         2.6210634084        2.7844913241       -7.7035228004
 Cd         4.8495943395        1.7843685348       -4.5225056138
 Cd         6.7261500983        1.0662237140       -0.9642295531
 Cd         8.8881450478        0.4141445330        2.4369093904
 Cd         4.3615782352       -0.9213178924       -7.7328888960
 Cd         6.7438649008       -1.9767569930       -4.2031112584
 Cd         8.5272445020       -2.6218905711       -0.2551455218
 Se        -9.0557725106        0.2424574140        0.9180313808
 Se        -6.3745872764       -0.6570220647        4.4225742627
 Se        -3.9358548519       -1.3506397678        8.2925868769
 Se        -6.5830028390       -3.7408669090        1.3890860046
 Se        -4.5802302415       -4.2716541219        4.8585926421
 Se        -4.6110671623       -7.7792240778        1.5343213278
 Se        -6.6407812351        3.9866809498        0.4586064126
 Se        -4.0705866514        2.6241591830        3.9150270775
 Se        -1.6315747320        2.0143859544        7.9219454430
 Se        -6.7106235468        0.9827493806       -3.1628202938
 Se        -4.4077684895       -0.2106461950        0.3970531668
 Se        -2.0534879979       -1.1190641497        4.2604482105
 Se         0.4069246601       -1.5676855049        8.0617057342
 Se        -4.4126107232       -3.1307459794       -2.8028288282
 Se        -2.2371864822       -4.0884616040        0.9473336128
 Se         0.1541797359       -4.8148952714        4.4843326207
 Se        -2.4147106009       -7.4199706225       -2.0529393442
 Se        -0.0662571417       -7.8800811154        1.3078284855
 Se        -4.5519687636        7.5920037884       -0.0122560791
 Se        -1.8482840651        6.3647212661        3.5390459072
 Se         0.4006735392        5.8241498358        7.5878867146
 Se        -4.4655945585        4.5529209660       -3.3484418515
 Se        -2.0798083538        3.7153034916        0.3451575142
 Se         0.4973892782        2.6967113851        3.7286137790
 Se         2.7724753484        1.9958260876        7.6298945277
 Se        -4.6126224962        2.0736182894       -6.9031574659
 Se        -2.2770211290        0.8531533747       -3.1284312065
 Se         0.0138865169       -0.1636477002        0.3858468104
 Se         2.3115473387       -1.3198431962        4.0017354986
 Se         4.8624545925       -1.8855864388        7.7371297607
 Se        -2.0700877949       -1.9675257511       -6.4603372509
 Se        -0.0447057629       -3.1582708631       -2.8090856920
 Se         2.2343306950       -4.2299664240        0.7817840723
 Se         4.8342987615       -4.9516929708        4.0974643468
 Se        -0.7556003326       -6.2829108386       -5.8406699955
 Se         1.9243057511       -7.4784768035       -2.6074198353
 Se         4.2543989663       -8.3809591814        0.7363809319
 Se         0.0386925703        7.3677075300       -0.4939635450
 Se         2.3791568525        6.5289221229        3.1400383851
 Se         0.0465974103        4.4270318221       -3.5936563407
 Se         2.5167269427        3.6273521599       -0.0581806204
 Se         4.7705604635        2.4670139639        3.1233546104
 Se         0.0435933033        1.9323944164       -6.9695738842
 Se         2.2733127965        0.7623703678       -3.6584263160
 Se         4.3816175435       -0.2841549253       -0.0177063702
 Se         6.9670500347       -1.1290204494        3.5565582379
 Se         2.2410869402       -2.2702007814       -6.6798205275
 Se         4.3723294721       -3.1971869108       -3.2130677403
 Se         6.4331938555       -4.1098532443        0.4136420186
 Se         4.8503033307        7.5509093293       -0.7463548497
 Se         4.8776288797        4.5477652435       -4.0091414448
 Se         7.0830986217        3.5950723552       -0.6434567968
 Se         4.7810064642        1.5273410534       -7.5566303287
 Se         6.9188050062        0.6130038217       -3.7081238627
 Se         9.1066871843       -0.0609359671       -0.0919647969
  C         6.9955771113       -6.9586634775       -2.8583426301
  H         7.7780160969       -7.1271873265       -3.6573399650
  O         5.8389952916       -6.4652991204       -3.1445809228
  O         7.2920676004       -7.2683568805       -1.6893132711
  C         3.3939431960       -6.2668607509       -6.9513074648
  H         4.3245440932       -6.8689211647       -7.0591687882
  O         3.0202466073       -5.7860511295       -5.7843136273
  O         2.6220129789       -6.1746538788       -7.9242101403
  C         6.3116555909       -2.9071154185       -7.4921130606
  H         7.0978863851       -3.7212906458       -7.4285512081
  O         6.0096715894       -2.3219711192       -6.3505932827
  O         5.9403243477       -2.4750431756       -8.6116316973
  C         8.9837561036       -3.3697375837       -3.4349055328
  H         9.9249943929       -3.8864043165       -3.1840078659
  O         8.5659407989       -3.4209184445       -4.6048832464
  O         8.2714489672       -2.6971151254       -2.5207012617
  C         9.7902109758       -4.6282247391        2.1768529346
  H        10.6284324694       -5.3337138149        2.3552924638
  O         9.7484501532       -4.1824896055        0.9942458601
  O         9.0219926648       -4.5705851174        3.1873629795
  C        -2.8252708508       -8.8894178348        5.3653894160
  H        -2.3915771747       -9.8892286280        5.4446685031
  O        -1.9808601030       -7.9304545651        5.0436955975
  O        -4.0908415257       -8.7280019527        5.4030844137
  C         3.0047406823       -8.6887063298        5.2919739424
  H         2.6853413808       -9.0312323512        6.2714246943
  O         1.9985977812       -8.3553887881        4.5599054594
  O         4.2197147413       -8.6069092298        4.9235206312
  C         2.8732291572       -5.7090624943        8.2322507888
  H         2.4095730423       -6.3582442170        8.9295273658
  O         2.2236878889       -4.8031284854        7.6183804854
  O         4.1525405945       -5.8988692439        8.1468427445
  C        -2.5324052264       -5.9090323801        8.5168983878
  H        -2.0058427467       -6.7599986745        9.0204193621
  O        -1.9189018681       -5.2527647032        7.5983339134
  O        -3.6521974131       -5.4981014961        8.8936623702
  C        -6.8661340661        2.3082426882        7.3884767521
  H        -7.2433530482        3.2983326111        7.3747512577
  O        -5.6189307919        2.1553364867        7.5292857639
  O        -7.6694328727        1.3672322100        7.2032576312
  C        -4.1128935570        6.2776012356        7.2258109093
  H        -5.2184092536        6.2949225170        7.4003980339
  O        -3.5215502414        5.2331222329        6.7794929280
  O        -3.5956064510        7.4679880815        7.3184340370
  C        -6.2584500423        7.1467273309        4.0778865765
  H        -7.2018864753        7.1620259062        4.6862261037
  O        -5.8042352338        6.0508881806        3.6277903665
  O        -5.6141473350        8.2227071687        3.8530055117
  C        -9.2670155991        2.9624473135        4.4549609073
  H        -9.7760873251        3.8307467380        4.7753730710
  O        -8.0580447847        3.0137717908        4.1153681461
  O       -10.0869615960        1.9755230626        4.3964141791
  C        -9.5997958208       -3.5202239981        4.2555074891
  H       -10.6284324694       -3.6062117458        4.7363993397
  O        -9.3836198173       -2.7271085544        3.2939504316
  O        -8.6749593009       -4.3055307223        4.7674147240
  C        -5.4063829718       -6.0836320759       -6.1576393485
  H        -6.0390997038       -6.5934387315       -6.8768176703
  O        -5.3157147411       -6.5042627408       -4.9638375967
  O        -4.7997118332       -5.0931497246       -6.6842330004
  C        -7.4812021438       -7.2683192216       -1.8337008205
  H        -7.8430239833       -7.7214409635       -2.7403108931
  O        -6.3847231004       -6.5596142310       -1.8855223803
  O        -8.0870004405       -7.4369608581       -0.7449951352
  C        -9.2637717352       -3.4248031045       -2.1287629167
  H        -9.5435102925       -4.0726156799       -2.9624854104
  O        -8.1685743898       -2.7562864935       -2.2769679175
  O        -9.8293124780       -3.4993302663       -1.0042472880
  C        -6.7198117275       -1.5155721631       -7.0057360974
  H        -7.7266400310       -1.9701098143       -7.1795729881
  O        -6.3208037730       -1.2812141421       -5.7891801227
  O        -6.0546670581       -1.2647410752       -8.0219575549
  C        -1.9610306020        5.6962737072       -7.4797868569
  H        -1.8068881661        6.7616764611       -7.4798700689
  O        -2.4613788677        5.1953402046       -6.4147373301
  O        -1.7592038190        5.0404242691       -8.5376948407
  C        -1.7153677193        9.0065729983       -3.7807068554
  H        -1.3518565997        9.2891789052       -4.8285272378
  O        -1.7735635219        7.7204009534       -3.5311974415
  O        -1.9589811591        9.8892286280       -2.9296575010
  C         2.5176986766        8.6527359013       -4.1276241396
  H         2.7356319561        9.0838176512       -5.0545617483
  O         2.0941304229        7.4607563111       -4.0382054964
  O         2.6632020791        9.4136986823       -3.1567247192
  C         1.7405814703        5.3615037054       -8.2026998584
  H         1.4592813282        6.4433815072       -8.3446733349
  O         2.2712544771        5.0744229803       -7.0359036782
  O         1.5374971892        4.4786315137       -9.0204193621
  C         9.4791869119        2.6134878200        3.9079418032
  H         9.6264681644        3.4611325178        4.5867541287
  O         8.5294682966        2.7206869475        3.0468687327
  O        10.1884170796        1.5361363159        4.0354546634
  C         6.6320899766        7.0427804887        3.3240585285
  H         7.5183451153        7.1103565644        4.0025867163
  O         6.4921259472        6.1579139584        2.4473334656
  O         5.8014508194        7.8970951585        3.5804466065
  C         4.7468288793        5.8510846562        6.9391041765
  H         5.6837062732        5.7110173508        7.4566454645
  O         4.3315486404        4.9881730889        6.0840680113
  O         4.1390624477        6.9214380767        7.1338855679
  C         7.5642974957        1.7429307679        7.1823006621
  H         8.1116275708        2.6102062210        7.6466333920
  O         6.7423080014        2.0330978891        6.2208765696
  O         7.8434776238        0.5800715711        7.5931108165
     227
 i =        1, time =        1.000, E =        -3.9737660676
 Cd        -8.6193266656        0.4796069578        3.4772184547
 Cd        -5.8716429438       -0.2571743687        7.1143487606
 Cd        -8.4082177248       -2.1541970987        0.3851916995
 Cd        -6.8926880145       -3.2917510433        3.9611061957
 Cd        -3.6901864279       -3.7004468991        7.3823148184
 Cd        -6.4420010954       -6.2357296115        0.4642945070
 Cd        -4.3123373868       -6.8295781037        3.9052993606
 Cd        -6.1164115148        3.8609186542        2.9056647374
 Cd        -3.6066814685        2.8812519497        6.5903306410
 Cd        -6.7534129845        1.1872442877       -0.3192241794
 Cd        -4.0444446842        0.0755160466        3.0501535798
 Cd        -1.7741926886       -0.3126454108        6.8335250463
 Cd        -6.3661060657       -1.4625901929       -3.4401667593
 Cd        -4.3614135465       -3.1217447317       -0.1745363139
 Cd        -2.2425961866       -3.6216506727        3.6335917149
 Cd         0.1786256063       -3.9616209511        7.0369274263
 Cd        -4.2694172333       -5.9881151471       -2.9988636305
 Cd        -2.2488069225       -6.7965578142        0.6791383064
 Cd         0.0677482760       -7.3030541669        3.8542607240
 Cd        -4.0801935750        7.4119169574        2.4183747099
 Cd        -1.6108477359        6.4880106840        6.2508798146
 Cd        -4.3325076917        4.8128327932       -0.6769313836
 Cd        -1.8303858598        3.6696295560        3.1589034464
 Cd         0.4898072665        3.1633696405        6.7204584047
 Cd        -4.5995052462        2.0001112844       -4.0890804127
 Cd        -2.1629132819        1.0181744272       -0.4517403697
 Cd         0.1384157810       -0.0681230445        3.1343888713
 Cd         2.6424429301       -0.6635421304        6.8958227139
 Cd        -4.1540708735       -0.5351332866       -6.9611230914
 Cd        -2.2031868160       -1.8490565621       -3.4900714200
 Cd         0.0357982568       -2.8474770933       -0.0251016077
 Cd         2.4397354974       -3.8216419869        3.5304353300
 Cd         4.5938430970       -4.2152077597        6.5946751368
 Cd        -2.6317423520       -4.5699208115       -6.0785197137
 Cd        -0.3609435446       -6.1209669831       -3.0631394512
 Cd         1.9864465004       -6.8523068802       -0.0374354799
 Cd         4.3578917370       -7.5048880990        3.0973459168
 Cd        -2.4319746739        8.2867744269       -1.2003853105
 Cd         0.1211442170        6.7911746151        2.0746697487
 Cd         2.2581123232        6.3879699581        5.9824873500
 Cd        -2.2739791065        5.5405950573       -4.1121471794
 Cd         0.1544556923        4.6148654933       -0.9822783845
 Cd         2.6164837316        3.7534316853        2.4611400199
 Cd         4.3939297788        2.5015291883        5.6447511554
 Cd        -2.3863918824        3.0936600540       -7.5399324938
 Cd        -0.1312550931        1.7709190961       -4.3473931794
 Cd         2.1531336082        0.8600622958       -0.9631933350
 Cd         4.3035151959       -0.4402471207        2.5249083735
 Cd         6.4920121430       -0.6517471626        6.0105628928
 Cd         0.4041638541       -0.5927963994       -7.0621730234
 Cd         2.1512701909       -1.8411374932       -3.9633204689
 Cd         4.1299775855       -2.9779911891       -0.5482338078
 Cd         6.9198098411       -3.7969332372        2.8856390149
 Cd         1.0695607557       -4.7690909652       -6.7907299344
 Cd         3.6506346891       -5.7624922410       -3.6176644942
 Cd         5.7328795984       -6.5639420779       -0.3327339768
 Cd         2.4550092623        8.1223536902       -1.1566189886
 Cd         4.4053772786        7.2898289822        1.7948035188
 Cd         2.3804008705        5.2451869050       -4.8086500315
 Cd         4.8189049691        4.7184889458       -1.4283125012
 Cd         6.7582368075        3.8401856550        2.0311295768
 Cd         2.6216805625        2.7829356335       -7.7033857476
 Cd         4.8491888898        1.7847286911       -4.5231997474
 Cd         6.7276643001        1.0649122922       -0.9630992886
 Cd         8.8867488997        0.4155616194        2.4348434248
 Cd         4.3617539683       -0.9227567533       -7.7309586270
 Cd         6.7427367770       -1.9756276289       -4.2012404950
 Cd         8.5291548968       -2.6208024673       -0.2527513258
 Se        -9.0549841372        0.2430900650        0.9182149468
 Se        -6.3728037815       -0.6564520923        4.4183533317
 Se        -3.9344431745       -1.3488820979        8.2968495162
 Se        -6.5831116192       -3.7425901769        1.3880026167
 Se        -4.5790889610       -4.2749632993        4.8598458518
 Se        -4.6122795829       -7.7768568577        1.5327712325
 Se        -6.6424828595        3.9855792060        0.4574715638
 Se        -4.0720213278        2.6208270477        3.9144065473
 Se        -1.6332120339        2.0118626561        7.9254397941
 Se        -6.7120335465        0.9831139993       -3.1653704514
 Se        -4.4071477556       -0.2112319574        0.3948545660
 Se        -2.0530733525       -1.1152811787        4.2594667697
 Se         0.4059795034       -1.5661238874        8.0652792361
 Se        -4.4161339235       -3.1301360758       -2.8047813552
 Se        -2.2373522452       -4.0916139096        0.9472269420
 Se         0.1529997137       -4.8127152728        4.4858643697
 Se        -2.4165376941       -7.4208994632       -2.0539048570
 Se        -0.0668142947       -7.8794261317        1.3095586383
 Se        -4.5524449988        7.5949030024       -0.0128069357
 Se        -1.8469747151        6.3633649223        3.5402710495
 Se         0.4037423744        5.8261225773        7.5862675003
 Se        -4.4663033158        4.5540397749       -3.3489638920
 Se        -2.0809795347        3.7152260343        0.3431794869
 Se         0.4983075691        2.6969187637        3.7288085837
 Se         2.7718154127        1.9958949451        7.6264366559
 Se        -4.6134607036        2.0748215834       -6.9049538377
 Se        -2.2789532692        0.8535134709       -3.1261296860
 Se         0.0146236866       -0.1632418029        0.3854328915
 Se         2.3129839128       -1.3187806785        3.9991783321
 Se         4.8632364075       -1.8842772704        7.7356457307
 Se        -2.0700892632       -1.9664519863       -6.4604299917
 Se        -0.0446205615       -3.1600421277       -2.8087861014
 Se         2.2322892785       -4.2315224907        0.7809658930
 Se         4.8362755893       -4.9532222902        4.0967360690
 Se        -0.7551630883       -6.2851539862       -5.8414044173
 Se         1.9250231131       -7.4792687504       -2.6077337817
 Se         4.2593239356       -8.3795051854        0.7362689270
 Se         0.0355805147        7.3687075531       -0.4914020150
 Se         2.3810270394        6.5252100961        3.1427152642
 Se         0.0437964057        4.4288456930       -3.5940939737
 Se         2.5164238225        3.6274251586       -0.0570965610
 Se         4.7728324261        2.4660752702        3.1252692144
 Se         0.0454955537        1.9301554644       -6.9706909862
 Se         2.2759319111        0.7649369958       -3.6570972629
 Se         4.3767517214       -0.2853566227       -0.0179756516
 Se         6.9677639998       -1.1294705974        3.5581251186
 Se         2.2371716285       -2.2683745834       -6.6838424352
 Se         4.3738440652       -3.1974933199       -3.2157247288
 Se         6.4331323248       -4.1117346803        0.4127797460
 Se         4.8519058087        7.5524410622       -0.7460482930
 Se         4.8775780416        4.5490441106       -4.0124474517
 Se         7.0858090321        3.5936392794       -0.6429011149
 Se         4.7820321498        1.5266014414       -7.5555589178
 Se         6.9188421309        0.6112098008       -3.7073707840
 Se         9.1070565946       -0.0626240855       -0.0924816638
  C         6.9966799448       -6.9498487291       -2.8612691488
  H         7.7649322095       -7.1224747738       -3.6684216540
  O         5.8445177007       -6.4674693967       -3.1400384074
  O         7.2894896048       -7.2745866156       -1.6944532042
  C         3.3950619228       -6.2673109633       -6.9491857115
  H         4.3444066225       -6.8936096686       -7.0753272229
  O         3.0189227033       -5.7910926272       -5.7826954232
  O         2.6179957823       -6.1691681177       -7.9241936576
  C         6.3106281136       -2.9078477368       -7.4910653456
  H         7.1299137504       -3.7048862282       -7.4466889051
  O         6.0085041687       -2.3183670399       -6.3480479954
  O         5.9396408378       -2.4745089055       -8.6126247931
  C         8.9774552778       -3.3708789632       -3.4296522233
  H         9.9250180562       -3.8774829974       -3.1826003730
  O         8.5686313690       -3.4151525441       -4.6047020582
  O         8.2719568289       -2.6968964270       -2.5205513987
  C         9.7980811963       -4.6252034729        2.1810006895
  H        10.6408655401       -5.3318691344        2.3887999993
  O         9.7476279575       -4.1808526284        0.9929035541
  O         9.0294012867       -4.5684284895        3.1871806296
  C        -2.8217337425       -8.8884451013        5.3598596864
  H        -2.4154187803       -9.9024293192        5.4343946394
  O        -1.9849554361       -7.9307727665        5.0424923063
  O        -4.0904365828       -8.7276910403        5.4046228039
  C         2.9969236802       -8.6916298804        5.2874254933
  H         2.6967725338       -9.0398269484        6.2934215078
  O         1.9998422992       -8.3581816871        4.5596457516
  O         4.2232486685       -8.6015419250        4.9170187591
  C         2.8793080448       -5.7053264951        8.2324335511
  H         2.3955873073       -6.3773024893        8.9303283437
  O         2.2195505199       -4.8091726855        7.6166087249
  O         4.1497360250       -5.9038803962        8.1539744839
  C        -2.5347149624       -5.9173470206        8.5220153176
  H        -2.0052498086       -6.7390725628        9.0096019785
  O        -1.9212410574       -5.2587408873        7.5984703896
  O        -3.6522329049       -5.5087909234        8.8930869144
  C        -6.8630694701        2.3027048181        7.3892166471
  H        -7.2086193538        3.3071349018        7.3885257928
  O        -5.6217611000        2.1592243555        7.5339800562
  O        -7.6698181629        1.3705186764        7.2000168164
  C        -4.1169941258        6.2828087617        7.2281985564
  H        -5.2418933127        6.2896177269        7.3832000201
  O        -3.5271082344        5.2292527310        6.7740300788
  O        -3.5913054947        7.4674424574        7.3181818302
  C        -6.2567465388        7.1462498164        4.0780900359
  H        -7.2111390447        7.1649409639        4.6689854642
  O        -5.8091498153        6.0483185208        3.6281715155
  O        -5.6133719446        8.2210483735        3.8492861627
  C        -9.2742289607        2.9617617887        4.4604745752
  H        -9.7855372140        3.8838940690        4.7760086716
  O        -8.0590664053        3.0118950607        4.1194514779
  O       -10.0815656393        1.9797412103        4.3924924140
  C        -9.6032857375       -3.5282236215        4.2551705888
  H       -10.5971720209       -3.6001750875        4.7566807035
  O        -9.3835290874       -2.7227931319        3.2943330461
  O        -8.6795799665       -4.3022356014        4.7634287408
  C        -5.4081381377       -6.0792399613       -6.1562009880
  H        -6.0546960796       -6.5859836395       -6.8890942905
  O        -5.3113802891       -6.5042742381       -4.9658250448
  O        -4.7989919756       -5.0928943999       -6.6854786638
  C        -7.4874976748       -7.2705830102       -1.8347924927
  H        -7.8388434959       -7.7173330376       -2.7530342297
  O        -6.3889842569       -6.5551243117       -1.8846232189
  O        -8.0720103546       -7.4411426433       -0.7460641639
  C        -9.2562872848       -3.4269946824       -2.1219787721
  H        -9.5270787848       -4.0663584857       -2.9594189931
  O        -8.1700186879       -2.7555259256       -2.2726778635
  O        -9.8244575677       -3.4941725008       -1.0094300346
  C        -6.7207136700       -1.5101384734       -7.0046072626
  H        -7.7450574417       -1.9674181007       -7.1698505571
  O        -6.3199536207       -1.2782267009       -5.7995469026
  O        -6.0638845126       -1.2637115664       -8.0158419580
  C        -1.9629157425        5.6954920096       -7.4853248858
  H        -1.7770888886        6.7764005651       -7.4923242406
  O        -2.4612184632        5.1870540814       -6.4091057894
  O        -1.7562052457        5.0411078677       -8.5287142878
  C        -1.7169013321        9.0075183236       -3.7839130989
  H        -1.3493405476        9.2660238074       -4.8465614694
  O        -1.7699403710        7.7200690308       -3.5247881912
  O        -1.9636924193        9.8898380711       -2.9411126158
  C         2.5062474092        8.6538956788       -4.1272904463
  H         2.7131102182        9.0638249498       -5.0476060874
  O         2.0944389946        7.4537298177       -4.0306128776
  O         2.6627669129        9.4114063338       -3.1556065350
  C         1.7411685661        5.3672439439       -8.1968748667
  H         1.4358383610        6.4416008070       -8.3632925476
  O         2.2780790480        5.0768951638       -7.0416115560
  O         1.5311197985        4.4836866974       -9.0178415398
  C         9.4768989310        2.6096294882        3.8999951466
  H         9.6131090334        3.4671477718        4.5843902861
  O         8.5284302184        2.7174302423        3.0495241468
  O        10.1888329868        1.5403964216        4.0334424478
  C         6.6326662940        7.0383173618        3.3281977726
  H         7.5082674956        7.1289998248        4.0070788575
  O         6.4946838716        6.1607332823        2.4467365321
  O         5.7958424442        7.9031650150        3.5816756663
  C         4.7447637236        5.8524885302        6.9354107517
  H         5.7085862008        5.7040540943        7.4370666698
  O         4.3288046443        4.9886662215        6.0815920696
  O         4.1463578899        6.9226051749        7.1375827627
  C         7.5603406942        1.7452803494        7.1878972012
  H         8.1158840311        2.6116602203        7.6593692779
  O         6.7461600814        2.0302665942        6.2245834622
  O         7.8437223853        0.5823434054        7.5897558188
     227
 i =        2, time =        2.000, E =        -4.0043028980
 Cd        -8.6169363151        0.4781767889        3.4769620298
 Cd        -5.8711913515       -0.2575720900        7.1134587345
 Cd        -8.4088731096       -2.1554210079        0.3835053439
 Cd        -6.8895314839       -3.2937044725        3.9621894922