     227
 i =        0, time =        0.000, E =        -8.5315653308
 Cd        -8.6216924880        0.4810107428        3.4775887729
 Cd        -5.8723589632       -0.2566559957        7.1151373767
 Cd        -8.4076147924       -2.1531404527        0.3867588804
 Cd        -6.8957642261       -3.2896665849        3.9600318291
 Cd        -3.6930098048       -3.6992689615        7.3819491709
 Cd        -6.4429261463       -6.2347087238        0.4622469067
 Cd        -4.3123952394       -6.8285875372        3.9039095072
 Cd        -6.1141073353        3.8626235599        2.9066844924
 Cd        -3.6048790416        2.8797284733        6.5917986711
 Cd        -6.7531255596        1.1841266196       -0.3182182747
 Cd        -4.0437606329        0.0729837467        3.0511954168
 Cd        -1.7753257667       -0.3121054857        6.8316599018
 Cd        -6.3661028473       -1.4630135273       -3.4383357626
 Cd        -4.3602814436       -3.1214810613       -0.1759283953
 Cd        -2.2424276819       -3.6242998489        3.6335413818
 Cd         0.1757294635       -3.9625201566        7.0364714760
 Cd        -4.2692200317       -5.9860442556       -3.0005266361
 Cd        -2.2482225396       -6.7972628816        0.6786391664
 Cd         0.0669003827       -7.3030327295        3.8545421700
 Cd        -4.0792754193        7.4105475565        2.4175118797
 Cd        -1.6116442377        6.4880648240        6.2478272306
 Cd        -4.3308002626        4.8127262164       -0.6762739309
 Cd        -1.8326132452        3.6694977750        3.1598212265
 Cd         0.4939817277        3.1637060931        6.7202662426
 Cd        -4.5980154021        1.9988297698       -4.0880170010
 Cd        -2.1651194586        1.0165564496       -0.4536921834
 Cd         0.1376109507       -0.0659106884        3.1336818174
 Cd         2.6419074521       -0.6636939286        6.8958319365
 Cd        -4.1515129292       -0.5348426091       -6.9620217917
 Cd        -2.2012490343       -1.8491984656       -3.4894107829
 Cd         0.0359311218       -2.8494155653       -0.0264680683
 Cd         2.4407298775       -3.8224684908        3.5289587884
 Cd         4.5907434619       -4.2169180472        6.5928471603
 Cd        -2.6321953796       -4.5685798778       -6.0773989300
 Cd        -0.3638438279       -6.1221236347       -3.0620735359
 Cd         1.9882729153       -6.8506852632       -0.0376753302
 Cd         4.3604701588       -7.5063202656        3.0981086138
 Cd        -2.4313710890        8.2839908015       -1.2010761441
 Cd         0.1210964618        6.7915494583        2.0748938605
 Cd         2.2602783261        6.3879934074        5.9824457591
 Cd        -2.2743307721        5.5403016700       -4.1096429978
 Cd         0.1552258413        4.6164378819       -0.9814446932
 Cd         2.6173372932        3.7540356816        2.4616712460
 Cd         4.3934694910        2.5024270436        5.6448470259
 Cd        -2.3839877703        3.0961459608       -7.5397423510
 Cd        -0.1308699873        1.7716472388       -4.3458913396
 Cd         2.1522040622        0.8595996928       -0.9600505658
 Cd         4.3027041934       -0.4425155449        2.5248589789
 Cd         6.4943132815       -0.6514444341        6.0110723312
 Cd         0.4032906214       -0.5920449882       -7.0625722312
 Cd         2.1504065746       -1.8410095193       -3.9631978812
 Cd         4.1282053355       -2.9764966895       -0.5499119195
 Cd         6.9189885741       -3.8001688729        2.8840486736
 Cd         1.0693858855       -4.7693596381       -6.7909688629
 Cd         3.6529341800       -5.7620820022       -3.6150795142
 Cd         5.7341856059       -6.5625995016       -0.3323817960
 Cd         2.4532379782        8.1225833618       -1.1556872380
 Cd         4.4025673150        7.2904811152        1.7928276254
 Cd         2.3800547108        5.2453457502       -4.8107637235
 Cd         4.8184663347        4.7191125514       -1.4277792117
 Cd         6.7589411702        3.8390778732        2.0295448973
 Cd         2.6210634084        2.7844913241       -7.7035228004
 Cd         4.8495943395        1.7843685348       -4.5225056138
 Cd         6.7261500983        1.0662237140       -0.9642295531
 Cd         8.8881450478        0.4141445330        2.4369093904
 Cd         4.3615782352       -0.9213178924       -7.7328888960
 Cd         6.7438649008       -1.9767569930       -4.2031112584
 Cd         8.5272445020       -2.6218905711       -0.2551455218
 Se        -9.0557725106        0.2424574140        0.9180313808
 Se        -6.3745872764       -0.6570220647        4.4225742627
 Se        -3.9358548519       -1.3506397678        8.2925868769
 Se        -6.5830028390       -3.7408669090        1.3890860046
 Se        -4.5802302415       -4.2716541219        4.8585926421
 Se        -4.6110671623       -7.7792240778        1.5343213278
 Se        -6.6407812351        3.9866809498        0.4586064126
 Se        -4.0705866514        2.6241591830        3.9150270775
 Se        -1.6315747320        2.0143859544        7.9219454430
 Se        -6.7106235468        0.9827493806       -3.1628202938
 Se        -4.4077684895       -0.2106461950        0.3970531668
 Se        -2.0534879979       -1.1190641497        4.2604482105
 Se         0.4069246601       -1.5676855049        8.0617057342
 Se        -4.4126107232       -3.1307459794       -2.8028288282
 Se        -2.2371864822       -4.0884616040        0.9473336128
 Se         0.1541797359       -4.8148952714        4.4843326207
 Se        -2.4147106009       -7.4199706225       -2.0529393442
 Se        -0.0662571417       -7.8800811154        1.3078284855
 Se        -4.5519687636        7.5920037884       -0.0122560791
 Se        -1.8482840651        6.3647212661        3.5390459072
 Se         0.4006735392        5.8241498358        7.5878867146
 Se        -4.4655945585        4.5529209660       -3.3484418515
 Se        -2.0798083538        3.7153034916        0.3451575142
 Se         0.4973892782        2.6967113851        3.7286137790
 Se         2.7724753484        1.9958260876        7.6298945277
 Se        -4.6126224962        2.0736182894       -6.9031574659
 Se        -2.2770211290        0.8531533747       -3.1284312065
 Se         0.0138865169       -0.1636477002        0.3858468104
 Se         2.3115473387       -1.3198431962        4.0017354986
 Se         4.8624545925       -1.8855864388        7.7371297607
 Se        -2.0700877949       -1.9675257511       -6.4603372509
 Se        -0.0447057629       -3.1582708631       -2.8090856920
 Se         2.2343306950       -4.2299664240        0.7817840723
 Se         4.8342987615       -4.9516929708        4.0974643468
 Se        -0.7556003326       -6.2829108386       -5.8406699955
 Se         1.9243057511       -7.4784768035       -2.6074198353
 Se         4.2543989663       -8.3809591814        0.7363809319
 Se         0.0386925703        7.3677075300       -0.4939635450
 Se         2.3791568525        6.5289221229        3.1400383851
 Se         0.0465974103        4.4270318221       -3.5936563407
 Se         2.5167269427        3.6273521599       -0.0581806204
 Se         4.7705604635        2.4670139639        3.1233546104
 Se         0.0435933033        1.9323944164       -6.9695738842
 Se         2.2733127965        0.7623703678       -3.6584263160
 Se         4.3816175435       -0.2841549253       -0.0177063702
 Se         6.9670500347       -1.1290204494        3.5565582379
 Se         2.2410869402       -2.2702007814       -6.6798205275
 Se         4.3723294721       -3.1971869108       -3.2130677403
 Se         6.4331938555       -4.1098532443        0.4136420186
 Se         4.8503033307        7.5509093293       -0.7463548497
 Se         4.8776288797        4.5477652435       -4.0091414448
 Se         7.0830986217        3.5950723552       -0.6434567968
 Se         4.7810064642        1.5273410534       -7.5566303287
 Se         6.9188050062        0.6130038217       -3.7081238627
 Se         9.1066871843       -0.0609359671       -0.0919647969
  C         6.9955771113       -6.9586634775       -2.8583426301
  H         7.7780160969       -7.1271873265       -3.6573399650
  O         5.8389952916       -6.4652991204       -3.1445809228
  O         7.2920676004       -7.2683568805       -1.6893132711
  C         3.3939431960       -6.2668607509       -6.9513074648
  H         4.3245440932       -6.8689211647       -7.0591687882
  O         3.0202466073       -5.7860511295       -5.7843136273
  O         2.6220129789       -6.1746538788       -7.9242101403
  C         6.3116555909       -2.9071154185       -7.4921130606
  H         7.0978863851       -3.7212906458       -7.4285512081
  O         6.0096715894       -2.3219711192       -6.3505932827
  O         5.9403243477       -2.4750431756       -8.6116316973
  C         8.9837561036       -3.3697375837       -3.4349055328
  H         9.9249943929       -3.8864043165       -3.1840078659
  O         8.5659407989       -3.4209184445       -4.6048832464
  O         8.2714489672       -2.6971151254       -2.5207012617
  C         9.7902109758       -4.6282247391        2.1768529346
  H        10.6284324694       -5.3337138149        2.3552924638
  O         9.7484501532       -4.1824896055        0.9942458601
  O         9.0219926648       -4.5705851174        3.1873629795
  C        -2.8252708508       -8.8894178348        5.3653894160
  H        -2.3915771747       -9.8892286280        5.4446685031
  O        -1.9808601030       -7.9304545651        5.0436955975
  O        -4.0908415257       -8.7280019527        5.4030844137
  C         3.0047406823       -8.6887063298        5.2919739424
  H         2.6853413808       -9.0312323512        6.2714246943
  O         1.9985977812       -8.3553887881        4.5599054594
  O         4.2197147413       -8.6069092298        4.9235206312
  C         2.8732291572       -5.7090624943        8.2322507888
  H         2.4095730423       -6.3582442170        8.9295273658
  O         2.2236878889       -4.8031284854        7.6183804854
  O         4.1525405945       -5.8988692439        8.1468427445
  C        -2.5324052264       -5.9090323801        8.5168983878
  H        -2.0058427467       -6.7599986745        9.0204193621
  O        -1.9189018681       -5.2527647032        7.5983339134
  O        -3.6521974131       -5.4981014961        8.8936623702
  C        -6.8661340661        2.3082426882        7.3884767521
  H        -7.2433530482        3.2983326111        7.3747512577
  O        -5.6189307919        2.1553364867        7.5292857639
  O        -7.6694328727        1.3672322100        7.2032576312
  C        -4.1128935570        6.2776012356        7.2258109093
  H        -5.2184092536        6.2949225170        7.4003980339
  O        -3.5215502414        5.2331222329        6.7794929280
  O        -3.5956064510        7.4679880815        7.3184340370
  C        -6.2584500423        7.1467273309        4.0778865765
  H        -7.2018864753        7.1620259062        4.6862261037
  O        -5.8042352338        6.0508881806        3.6277903665
  O        -5.6141473350        8.2227071687        3.8530055117
  C        -9.2670155991        2.9624473135        4.4549609073
  H        -9.7760873251        3.8307467380        4.7753730710
  O        -8.0580447847        3.0137717908        4.1153681461
  O       -10.0869615960        1.9755230626        4.3964141791
  C        -9.5997958208       -3.5202239981        4.2555074891
  H       -10.6284324694       -3.6062117458        4.7363993397
  O        -9.3836198173       -2.7271085544        3.2939504316
  O        -8.6749593009       -4.3055307223        4.7674147240
  C        -5.4063829718       -6.0836320759       -6.1576393485
  H        -6.0390997038       -6.5934387315       -6.8768176703
  O        -5.3157147411       -6.5042627408       -4.9638375967
  O        -4.7997118332       -5.0931497246       -6.6842330004
  C        -7.4812021438       -7.2683192216       -1.8337008205
  H        -7.8430239833       -7.7214409635       -2.7403108931
  O        -6.3847231004       -6.5596142310       -1.8855223803
  O        -8.0870004405       -7.4369608581       -0.7449951352
  C        -9.2637717352       -3.4248031045       -2.1287629167
  H        -9.5435102925       -4.0726156799       -2.9624854104
  O        -8.1685743898       -2.7562864935       -2.2769679175
  O        -9.8293124780       -3.4993302663       -1.0042472880
  C        -6.7198117275       -1.5155721631       -7.0057360974
  H        -7.7266400310       -1.9701098143       -7.1795729881
  O        -6.3208037730       -1.2812141421       -5.7891801227
  O        -6.0546670581       -1.2647410752       -8.0219575549
  C        -1.9610306020        5.6962737072       -7.4797868569
  H        -1.8068881661        6.7616764611       -7.4798700689
  O        -2.4613788677        5.1953402046       -6.4147373301
  O        -1.7592038190        5.0404242691       -8.5376948407
  C        -1.7153677193        9.0065729983       -3.7807068554
  H        -1.3518565997        9.2891789052       -4.8285272378
  O        -1.7735635219        7.7204009534       -3.5311974415
  O        -1.9589811591        9.8892286280       -2.9296575010
  C         2.5176986766        8.6527359013       -4.1276241396
  H         2.7356319561        9.0838176512       -5.0545617483
  O         2.0941304229        7.4607563111       -4.0382054964
  O         2.6632020791        9.4136986823       -3.1567247192
  C         1.7405814703        5.3615037054       -8.2026998584
  H         1.4592813282        6.4433815072       -8.3446733349
  O         2.2712544771        5.0744229803       -7.0359036782
  O         1.5374971892        4.4786315137       -9.0204193621
  C         9.4791869119        2.6134878200        3.9079418032
  H         9.6264681644        3.4611325178        4.5867541287
  O         8.5294682966        2.7206869475        3.0468687327
  O        10.1884170796        1.5361363159        4.0354546634
  C         6.6320899766        7.0427804887        3.3240585285
  H         7.5183451153        7.1103565644        4.0025867163
  O         6.4921259472        6.1579139584        2.4473334656
  O         5.8014508194        7.8970951585        3.5804466065
  C         4.7468288793        5.8510846562        6.9391041765
  H         5.6837062732        5.7110173508        7.4566454645
  O         4.3315486404        4.9881730889        6.0840680113
  O         4.1390624477        6.9214380767        7.1338855679
  C         7.5642974957        1.7429307679        7.1823006621
  H         8.1116275708        2.6102062210        7.6466333920
  O         6.7423080014        2.0330978891        6.2208765696
  O         7.8434776238        0.5800715711        7.5931108165
     227
 i =        1, time =        1.000, E =        -8.5569567736
 Cd        -8.6193172831        0.4795971703        3.4772632394
 Cd        -5.8717500065       -0.2571262192        7.1143111350
 Cd        -8.4082434533       -2.1542649068        0.3851432817
 Cd        -6.8926555564       -3.2916962443        3.9611109079
 Cd        -3.6901938806       -3.7005209293        7.3822871463
 Cd        -6.4420429652       -6.2357298342        0.4642886421
 Cd        -4.3123212492       -6.8295725048        3.9053878527
 Cd        -6.1164645321        3.8609202324        2.9057707816
 Cd        -3.6067611683        2.8812872938        6.5902952988
 Cd        -6.7534242616        1.1872692440       -0.3192361125
 Cd        -4.0445045035        0.0755172507        3.0501429550
 Cd        -1.7741879107       -0.3127141086        6.8335305278
 Cd        -6.3661486689       -1.4627300091       -3.4401766669
 Cd        -4.3614843518       -3.1217062838       -0.1745127898
 Cd        -2.2425915828       -3.6217270574        3.6335925603
 Cd         0.1785663616       -3.9616581547        7.0369441737
 Cd        -4.2694924441       -5.9880463097       -2.9988726890
 Cd        -2.2488980412       -6.7965319108        0.6790902653
 Cd         0.0677156427       -7.3031350177        3.8542969043
 Cd        -4.0801485661        7.4118979252        2.4184842840
 Cd        -1.6109390590        6.4880799319        6.2508358001
 Cd        -4.3325293919        4.8128653972       -0.6769336382
 Cd        -1.8303981463        3.6696727277        3.1588682403
 Cd         0.4898125150        3.1633760339        6.7204430201
 Cd        -4.5994351741        2.0001416981       -4.0891522253
 Cd        -2.1629592029        1.0182277751       -0.4517428859
 Cd         0.1384119927       -0.0680853814        3.1343915912
 Cd         2.6424350157       -0.6635234611        6.8958060695
 Cd        -4.1541134744       -0.5351190964       -6.9611244826
 Cd        -2.2032105982       -1.8490203884       -3.4901172579
 Cd         0.0357895942       -2.8475065490       -0.0251089628
 Cd         2.4397555435       -3.8217312890        3.5304132960
 Cd         4.5938348448       -4.2152359010        6.5947047838
 Cd        -2.6318094364       -4.5698903189       -6.0785165010
 Cd        -0.3609195242       -6.1209345116       -3.0631636855
 Cd         1.9864763717       -6.8523141470       -0.0374190060
 Cd         4.3578979390       -7.5047731228        3.0973134992
 Cd        -2.4319042459        8.2868216127       -1.2004515251
 Cd         0.1211433962        6.7912177519        2.0745718708
 Cd         2.2581676796        6.3879946169        5.9823866578
 Cd        -2.2739336132        5.5406523040       -4.1121915854
 Cd         0.1544483424        4.6148839716       -0.9822485285
 Cd         2.6164624693        3.7534937854        2.4612345357
 Cd         4.3939669146        2.5015553507        5.6448194129
 Cd        -2.3863291029        3.0936550103       -7.5399619619
 Cd        -0.1312487808        1.7709488944       -4.3473826030
 Cd         2.1531371624        0.8601056890       -0.9632000859
 Cd         4.3035814219       -0.4402234556        2.5249861238
 Cd         6.4920276744       -0.6516959215        6.0106484432
 Cd         0.4040785669       -0.5928156452       -7.0622128821
 Cd         2.1512636383       -1.8411895021       -3.9633271565
 Cd         4.1300153828       -2.9779730804       -0.5482461990
 Cd         6.9198157142       -3.7968976136        2.8857253201
 Cd         1.0696124619       -4.7690328374       -6.7907729962
 Cd         3.6506704842       -5.7624952804       -3.6176415009
 Cd         5.7328358933       -6.5638918458       -0.3327260679
 Cd         2.4549227707        8.1224095546       -1.1566762469
 Cd         4.4054466338        7.2898594379        1.7948011899
 Cd         2.3804036531        5.2452012357       -4.8085976954
 Cd         4.8188710465        4.7185311289       -1.4282543840
 Cd         6.7582674448        3.8402221221        2.0311261809
 Cd         2.6215795233        2.7830004395       -7.7033998948
 Cd         4.8490903868        1.7847914750       -4.5232593878
 Cd         6.7276568771        1.0648323016       -0.9631153223
 Cd         8.8867632791        0.4155690316        2.4348868493
 Cd         4.3617562894       -0.9228994139       -7.7309772026
 Cd         6.7427282809       -1.9756528092       -4.2012199673
 Cd         8.5291849509       -2.6208110343       -0.2527417560
 Se        -9.0550973759        0.2432368752        0.9181361097
 Se        -6.3728182022       -0.6564440845        4.4183835360
 Se        -3.9343756325       -1.3488565185        8.2970643964
 Se        -6.5830765699       -3.7426423742        1.3879221294
 Se        -4.5790669318       -4.2750779632        4.8599340283
 Se        -4.6123123150       -7.7770141442        1.5327323008
 Se        -6.6426076540        3.9855606981        0.4572790050
 Se        -4.0720217376        2.6208005438        3.9144826039
 Se        -1.6331188991        2.0119658158        7.9256136240
 Se        -6.7122890394        0.9832733970       -3.1652602447
 Se        -4.4071894285       -0.2112644243        0.3948401620
 Se        -2.0530031328       -1.1152161531        4.2595135189
 Se         0.4059565148       -1.5661239933        8.0653823307
 Se        -4.4161454780       -3.1302421624       -2.8048607758
 Se        -2.2372662786       -4.0916158238        0.9472432781
 Se         0.1529480593       -4.8126610415        4.4858980689
 Se        -2.4165170793       -7.4210628584       -2.0538721395
 Se        -0.0666905094       -7.8796038140        1.3095926844
 Se        -4.5526353073        7.5949398889       -0.0129716503
 Se        -1.8471212598        6.3634172630        3.5404172816
 Se         0.4037690432        5.8260873121        7.5865239287
 Se        -4.4664777260        4.5540883355       -3.3489574790
 Se        -2.0809471390        3.7151942062        0.3431674350
 Se         0.4983543466        2.6968469510        3.7289054264
 Se         2.7718154882        1.9958965251        7.6265381042
 Se        -4.6136298804        2.0748196037       -6.9049797406
 Se        -2.2789809441        0.8534779851       -3.1261568097
 Se         0.0146855050       -0.1632658610        0.3854640072
 Se         2.3130056166       -1.3186377467        3.9992996182
 Se         4.8632955216       -1.8842655592        7.7357656548
 Se        -2.0699834934       -1.9664726485       -6.4604534146
 Se        -0.0445370832       -3.1601109011       -2.8087725151
 Se         2.2322461473       -4.2315430887        0.7809800830
 Se         4.8362941509       -4.9533072671        4.0967475136
 Se        -0.7551859755       -6.2853628725       -5.8414081991
 Se         1.9250205666       -7.4793756394       -2.6077944309
 Se         4.2592932762       -8.3797124276        0.7361768828
 Se         0.0355410922        7.3687516576       -0.4914014912
 Se         2.3810924689        6.5252011096        3.1428993853
 Se         0.0438602388        4.4288216159       -3.5941559682
 Se         2.5164192567        3.6274173766       -0.0573200286
 Se         4.7729150427        2.4659738049        3.1252168661
 Se         0.0454701478        1.9302447747       -6.9708165094
 Se         2.2759839356        0.7650038629       -3.6570933520
 Se         4.3768035672       -0.2853553993       -0.0181069054
 Se         6.9677705070       -1.1295216520        3.5580293280
 Se         2.2372613656       -2.2684948320       -6.6838973358
 Se         4.3738789280       -3.1974743184       -3.2157374230
 Se         6.4330752602       -4.1117673659        0.4126419561
 Se         4.8521490384        7.5524427286       -0.7461095251
 Se         4.8776007376        4.5490632704       -4.0126046181
 Se         7.0859323699        3.5937737409       -0.6428640809
 Se         4.7822597620        1.5267361631       -7.5555620183
 Se         6.9190223906        0.6111907054       -3.7073452739
 Se         9.1071771471       -0.0625908863       -0.0925681927
  C         6.9966702506       -6.9497957630       -2.8612716031
  H         7.7649322095       -7.1224747738       -3.6684216540
  O         5.8449090087       -6.4676690397       -3.1399286364
  O         7.2902449456       -7.2749135177       -1.6951385189
  C         3.3950855045       -6.2672819691       -6.9491570464
  H         4.3444066225       -6.8936096686       -7.0753272229
  O         3.0189631330       -5.7911898326       -5.7832582351
  O         2.6181802460       -6.1692931534       -7.9243162772
  C         6.3106270886       -2.9078655077       -7.4910058514
  H         7.1299137504       -3.7048862282       -7.4466889051
  O         6.0084455823       -2.3184673109       -6.3485785003
  O         5.9397896910       -2.4746697757       -8.6126960461
  C         8.9774127683       -3.3708896749       -3.4296313940
  H         9.9250180562       -3.8774829974       -3.1826003730
  O         8.5688478769       -3.4153397521       -4.6047241721
  O         8.2720781923       -2.6971021571       -2.5209878857
  C         9.7980410077       -4.6251877022        2.1809847476
  H        10.6408655401       -5.3318691344        2.3887999993
  O         9.7480177814       -4.1810738654        0.9931694594
  O         9.0299932117       -4.5686350686        3.1872828592
  C        -2.8217177170       -8.8884030453        5.3598599627
  H        -2.4154187803       -9.9024293192        5.4343946394
  O        -1.9851492520       -7.9308109364        5.0425763951
  O        -4.0903924915       -8.7277895470        5.4047423030
  C         2.9969125837       -8.6915855213        5.2874323637
  H         2.6967725338       -9.0398269484        6.2934215078
  O         2.0002860161       -8.3583689530        4.5598123241
  O         4.2231251708       -8.6023078118        4.9182738003
  C         2.8792856649       -5.7053294045        8.2323992281
  H         2.3955873073       -6.3773024893        8.9303283437
  O         2.2200446002       -4.8094422917        7.6167300878
  O         4.1496353079       -5.9041582436        8.1541860362
  C        -2.5347046154       -5.9173520768        8.5219641698
  H        -2.0052498086       -6.7390725628        9.0096019785
  O        -1.9211092157       -5.2589705790        7.5985680142
  O        -3.6522154518       -5.5090377218        8.8932628831
  C        -6.8630607241        2.3027116913        7.3891583095
  H        -7.2086193538        3.3071349018        7.3885257928
  O        -5.6221145897        2.1592710412        7.5341414151
  O        -7.6699413264        1.3706771933        7.2000672746
  C        -4.1170079645        6.2827825080        7.2281580649
  H        -5.2418933127        6.2896177269        7.3832000201
  O        -3.5274138478        5.2294056332        6.7741424607
  O        -3.5914000897        7.4674734426        7.3181995940
  C        -6.2567265948        7.1462137753        4.0781050308
  H        -7.2111390447        7.1649409639        4.6689854642
  O        -5.8091615971        6.0487072661        3.6284055849
  O        -5.6137820101        8.2212406067        3.8497168555
  C        -9.2741835047        2.9617361914        4.4604884471
  H        -9.7855372140        3.8838940690        4.7760086716
  O        -8.0592155065        3.0118557558        4.1195754906
  O       -10.0818677491        1.9800751242        4.3927290476
  C        -9.6032546307       -3.5282060325        4.2551521008
  H       -10.5971720209       -3.6001750875        4.7566807035
  O        -9.3836211913       -2.7227685610        3.2944040425
  O        -8.6803451204       -4.3026532858        4.7637828718
  C        -5.4081387618       -6.0792097294       -6.1561687045
  H        -6.0546960796       -6.5859836395       -6.8890942905
  O        -5.3115887371       -6.5043377344       -4.9663002990
  O        -4.7994053520       -5.0929823717       -6.6855580429
  C        -7.4874781261       -7.2705344487       -1.8348007139
  H        -7.8388434959       -7.7173330376       -2.7530342297
  O        -6.3891423639       -6.5551610261       -1.8848404407
  O        -8.0721870406       -7.4412508067       -0.7462015620
  C        -9.2562428334       -3.4270114671       -2.1219645136
  H        -9.5270787848       -4.0663584857       -2.9594189931
  O        -8.1701264515       -2.7555923415       -2.2725971062
  O        -9.8245628597       -3.4943027176       -1.0095770810
  C        -6.7206957661       -1.5101673961       -7.0045752777
  H        -7.7450574417       -1.9674181007       -7.1698505571
  O        -6.3199360067       -1.2783671459       -5.7999619360
  O        -6.0642766065       -1.2639296145       -8.0160499105
  C        -1.9628827983        5.6954844548       -7.4852938628
  H        -1.7770888886        6.7764005651       -7.4923242406
  O        -2.4611843271        5.1872870321       -6.4094259120
  O        -1.7560546885        5.0415903847       -8.5289264854
  C        -1.7168688889        9.0074822303       -3.7839166132
  H        -1.3493405476        9.2660238074       -4.8465614694
  O        -1.7698980420        7.7205307573       -3.5248775926
  O        -1.9636538823        9.8899449667       -2.9412496540
  C         2.5062190945        8.6538643678       -4.1272910728
  H         2.7131102182        9.0638249498       -5.0476060874
  O         2.0944152064        7.4540916643       -4.0305049168
  O         2.6627254181        9.4115554610       -3.1558368598
  C         1.7411302942        5.3672397234       -8.1968448598
  H         1.4358383610        6.4416008070       -8.3632925476
  O         2.2779978672        5.0770556277       -7.0423148624
  O         1.5310866970        4.4838903014       -9.0179717312
  C         9.4768439415        2.6096230983        3.9000102204
  H         9.6131090334        3.4671477718        4.5843902861
  O         8.5287516633        2.7174517149        3.0497909961
  O        10.1889929934        1.5405547770        4.0336562494
  C         6.6326459125        7.0382756706        3.3282154855
  H         7.5082674956        7.1289998248        4.0070788575
  O         6.4947563045        6.1609417251        2.4468944657
  O         5.7960670289        7.9032353922        3.5819213879
  C         4.7447755005        5.8524700302        6.9353700129
  H         5.7085862008        5.7040540943        7.4370666698
  O         4.3289116985        4.9887402777        6.0815873933
  O         4.1468684718        6.9227372398        7.1378365894
  C         7.5603309323        1.7452823701        7.1878507085
  H         8.1158840311        2.6116602203        7.6593692779
  O         6.7463388692        2.0302216004        6.2246588368
  O         7.8438474668        0.5824672749        7.5898328081
     227
 i =        2, time =        2.000, E =        -8.6181895586
 Cd        -8.6169016239        0.4781388728        3.4771416300
 Cd        -5.8716172264       -0.2573793192        7.1133090357
 Cd        -8.4089751235       -2.1556883732        0.3833143310
 Cd        -6.8894035802       -3.2934901665        3.9622053539