     227
 i =        0, time =        0.000, E =       -17.1664950990
 Cd        -8.6216924880        0.4810107428        3.4775887729
 Cd        -5.8723589632       -0.2566559957        7.1151373767
 Cd        -8.4076147924       -2.1531404527        0.3867588804
 Cd        -6.8957642261       -3.2896665849        3.9600318291
 Cd        -3.6930098048       -3.6992689615        7.3819491709
 Cd        -6.4429261463       -6.2347087238        0.4622469067
 Cd        -4.3123952394       -6.8285875372        3.9039095072
 Cd        -6.1141073353        3.8626235599        2.9066844924
 Cd        -3.6048790416        2.8797284733        6.5917986711
 Cd        -6.7531255596        1.1841266196       -0.3182182747
 Cd        -4.0437606329        0.0729837467        3.0511954168
 Cd        -1.7753257667       -0.3121054857        6.8316599018
 Cd        -6.3661028473       -1.4630135273       -3.4383357626
 Cd        -4.3602814436       -3.1214810613       -0.1759283953
 Cd        -2.2424276819       -3.6242998489        3.6335413818
 Cd         0.1757294635       -3.9625201566        7.0364714760
 Cd        -4.2692200317       -5.9860442556       -3.0005266361
 Cd        -2.2482225396       -6.7972628816        0.6786391664
 Cd         0.0669003827       -7.3030327295        3.8545421700
 Cd        -4.0792754193        7.4105475565        2.4175118797
 Cd        -1.6116442377        6.4880648240        6.2478272306
 Cd        -4.3308002626        4.8127262164       -0.6762739309
 Cd        -1.8326132452        3.6694977750        3.1598212265
 Cd         0.4939817277        3.1637060931        6.7202662426
 Cd        -4.5980154021        1.9988297698       -4.0880170010
 Cd        -2.1651194586        1.0165564496       -0.4536921834
 Cd         0.1376109507       -0.0659106884        3.1336818174
 Cd         2.6419074521       -0.6636939286        6.8958319365
 Cd        -4.1515129292       -0.5348426091       -6.9620217917
 Cd        -2.2012490343       -1.8491984656       -3.4894107829
 Cd         0.0359311218       -2.8494155653       -0.0264680683
 Cd         2.4407298775       -3.8224684908        3.5289587884
 Cd         4.5907434619       -4.2169180472        6.5928471603
 Cd        -2.6321953796       -4.5685798778       -6.0773989300
 Cd        -0.3638438279       -6.1221236347       -3.0620735359
 Cd         1.9882729153       -6.8506852632       -0.0376753302
 Cd         4.3604701588       -7.5063202656        3.0981086138
 Cd        -2.4313710890        8.2839908015       -1.2010761441
 Cd         0.1210964618        6.7915494583        2.0748938605
 Cd         2.2602783261        6.3879934074        5.9824457591
 Cd        -2.2743307721        5.5403016700       -4.1096429978
 Cd         0.1552258413        4.6164378819       -0.9814446932
 Cd         2.6173372932        3.7540356816        2.4616712460
 Cd         4.3934694910        2.5024270436        5.6448470259
 Cd        -2.3839877703        3.0961459608       -7.5397423510
 Cd        -0.1308699873        1.7716472388       -4.3458913396
 Cd         2.1522040622        0.8595996928       -0.9600505658
 Cd         4.3027041934       -0.4425155449        2.5248589789
 Cd         6.4943132815       -0.6514444341        6.0110723312
 Cd         0.4032906214       -0.5920449882       -7.0625722312
 Cd         2.1504065746       -1.8410095193       -3.9631978812
 Cd         4.1282053355       -2.9764966895       -0.5499119195
 Cd         6.9189885741       -3.8001688729        2.8840486736
 Cd         1.0693858855       -4.7693596381       -6.7909688629
 Cd         3.6529341800       -5.7620820022       -3.6150795142
 Cd         5.7341856059       -6.5625995016       -0.3323817960
 Cd         2.4532379782        8.1225833618       -1.1556872380
 Cd         4.4025673150        7.2904811152        1.7928276254
 Cd         2.3800547108        5.2453457502       -4.8107637235
 Cd         4.8184663347        4.7191125514       -1.4277792117
 Cd         6.7589411702        3.8390778732        2.0295448973
 Cd         2.6210634084        2.7844913241       -7.7035228004
 Cd         4.8495943395        1.7843685348       -4.5225056138
 Cd         6.7261500983        1.0662237140       -0.9642295531
 Cd         8.8881450478        0.4141445330        2.4369093904
 Cd         4.3615782352       -0.9213178924       -7.7328888960
 Cd         6.7438649008       -1.9767569930       -4.2031112584
 Cd         8.5272445020       -2.6218905711       -0.2551455218
 Se        -9.0557725106        0.2424574140        0.9180313808
 Se        -6.3745872764       -0.6570220647        4.4225742627
 Se        -3.9358548519       -1.3506397678        8.2925868769
 Se        -6.5830028390       -3.7408669090        1.3890860046
 Se        -4.5802302415       -4.2716541219        4.8585926421
 Se        -4.6110671623       -7.7792240778        1.5343213278
 Se        -6.6407812351        3.9866809498        0.4586064126
 Se        -4.0705866514        2.6241591830        3.9150270775
 Se        -1.6315747320        2.0143859544        7.9219454430
 Se        -6.7106235468        0.9827493806       -3.1628202938
 Se        -4.4077684895       -0.2106461950        0.3970531668
 Se        -2.0534879979       -1.1190641497        4.2604482105
 Se         0.4069246601       -1.5676855049        8.0617057342
 Se        -4.4126107232       -3.1307459794       -2.8028288282
 Se        -2.2371864822       -4.0884616040        0.9473336128
 Se         0.1541797359       -4.8148952714        4.4843326207
 Se        -2.4147106009       -7.4199706225       -2.0529393442
 Se        -0.0662571417       -7.8800811154        1.3078284855
 Se        -4.5519687636        7.5920037884       -0.0122560791
 Se        -1.8482840651        6.3647212661        3.5390459072
 Se         0.4006735392        5.8241498358        7.5878867146
 Se        -4.4655945585        4.5529209660       -3.3484418515
 Se        -2.0798083538        3.7153034916        0.3451575142
 Se         0.4973892782        2.6967113851        3.7286137790
 Se         2.7724753484        1.9958260876        7.6298945277
 Se        -4.6126224962        2.0736182894       -6.9031574659
 Se        -2.2770211290        0.8531533747       -3.1284312065
 Se         0.0138865169       -0.1636477002        0.3858468104
 Se         2.3115473387       -1.3198431962        4.0017354986
 Se         4.8624545925       -1.8855864388        7.7371297607
 Se        -2.0700877949       -1.9675257511       -6.4603372509
 Se        -0.0447057629       -3.1582708631       -2.8090856920
 Se         2.2343306950       -4.2299664240        0.7817840723
 Se         4.8342987615       -4.9516929708        4.0974643468
 Se        -0.7556003326       -6.2829108386       -5.8406699955
 Se         1.9243057511       -7.4784768035       -2.6074198353
 Se         4.2543989663       -8.3809591814        0.7363809319
 Se         0.0386925703        7.3677075300       -0.4939635450
 Se         2.3791568525        6.5289221229        3.1400383851
 Se         0.0465974103        4.4270318221       -3.5936563407
 Se         2.5167269427        3.6273521599       -0.0581806204
 Se         4.7705604635        2.4670139639        3.1233546104
 Se         0.0435933033        1.9323944164       -6.9695738842
 Se         2.2733127965        0.7623703678       -3.6584263160
 Se         4.3816175435       -0.2841549253       -0.0177063702
 Se         6.9670500347       -1.1290204494        3.5565582379
 Se         2.2410869402       -2.2702007814       -6.6798205275
 Se         4.3723294721       -3.1971869108       -3.2130677403
 Se         6.4331938555       -4.1098532443        0.4136420186
 Se         4.8503033307        7.5509093293       -0.7463548497
 Se         4.8776288797        4.5477652435       -4.0091414448
 Se         7.0830986217        3.5950723552       -0.6434567968
 Se         4.7810064642        1.5273410534       -7.5566303287
 Se         6.9188050062        0.6130038217       -3.7081238627
 Se         9.1066871843       -0.0609359671       -0.0919647969
  C         6.9955771113       -6.9586634775       -2.8583426301
  H         7.7780160969       -7.1271873265       -3.6573399650
  O         5.8389952916       -6.4652991204       -3.1445809228
  O         7.2920676004       -7.2683568805       -1.6893132711
  C         3.3939431960       -6.2668607509       -6.9513074648
  H         4.3245440932       -6.8689211647       -7.0591687882
  O         3.0202466073       -5.7860511295       -5.7843136273
  O         2.6220129789       -6.1746538788       -7.9242101403
  C         6.3116555909       -2.9071154185       -7.4921130606
  H         7.0978863851       -3.7212906458       -7.4285512081
  O         6.0096715894       -2.3219711192       -6.3505932827
  O         5.9403243477       -2.4750431756       -8.6116316973
  C         8.9837561036       -3.3697375837       -3.4349055328
  H         9.9249943929       -3.8864043165       -3.1840078659
  O         8.5659407989       -3.4209184445       -4.6048832464
  O         8.2714489672       -2.6971151254       -2.5207012617
  C         9.7902109758       -4.6282247391        2.1768529346
  H        10.6284324694       -5.3337138149        2.3552924638
  O         9.7484501532       -4.1824896055        0.9942458601
  O         9.0219926648       -4.5705851174        3.1873629795
  C        -2.8252708508       -8.8894178348        5.3653894160
  H        -2.3915771747       -9.8892286280        5.4446685031
  O        -1.9808601030       -7.9304545651        5.0436955975
  O        -4.0908415257       -8.7280019527        5.4030844137
  C         3.0047406823       -8.6887063298        5.2919739424
  H         2.6853413808       -9.0312323512        6.2714246943
  O         1.9985977812       -8.3553887881        4.5599054594
  O         4.2197147413       -8.6069092298        4.9235206312
  C         2.8732291572       -5.7090624943        8.2322507888
  H         2.4095730423       -6.3582442170        8.9295273658
  O         2.2236878889       -4.8031284854        7.6183804854
  O         4.1525405945       -5.8988692439        8.1468427445
  C        -2.5324052264       -5.9090323801        8.5168983878
  H        -2.0058427467       -6.7599986745        9.0204193621
  O        -1.9189018681       -5.2527647032        7.5983339134
  O        -3.6521974131       -5.4981014961        8.8936623702
  C        -6.8661340661        2.3082426882        7.3884767521
  H        -7.2433530482        3.2983326111        7.3747512577
  O        -5.6189307919        2.1553364867        7.5292857639
  O        -7.6694328727        1.3672322100        7.2032576312
  C        -4.1128935570        6.2776012356        7.2258109093
  H        -5.2184092536        6.2949225170        7.4003980339
  O        -3.5215502414        5.2331222329        6.7794929280
  O        -3.5956064510        7.4679880815        7.3184340370
  C        -6.2584500423        7.1467273309        4.0778865765
  H        -7.2018864753        7.1620259062        4.6862261037
  O        -5.8042352338        6.0508881806        3.6277903665
  O        -5.6141473350        8.2227071687        3.8530055117
  C        -9.2670155991        2.9624473135        4.4549609073
  H        -9.7760873251        3.8307467380        4.7753730710
  O        -8.0580447847        3.0137717908        4.1153681461
  O       -10.0869615960        1.9755230626        4.3964141791
  C        -9.5997958208       -3.5202239981        4.2555074891
  H       -10.6284324694       -3.6062117458        4.7363993397
  O        -9.3836198173       -2.7271085544        3.2939504316
  O        -8.6749593009       -4.3055307223        4.7674147240
  C        -5.4063829718       -6.0836320759       -6.1576393485
  H        -6.0390997038       -6.5934387315       -6.8768176703
  O        -5.3157147411       -6.5042627408       -4.9638375967
  O        -4.7997118332       -5.0931497246       -6.6842330004
  C        -7.4812021438       -7.2683192216       -1.8337008205
  H        -7.8430239833       -7.7214409635       -2.7403108931
  O        -6.3847231004       -6.5596142310       -1.8855223803
  O        -8.0870004405       -7.4369608581       -0.7449951352
  C        -9.2637717352       -3.4248031045       -2.1287629167
  H        -9.5435102925       -4.0726156799       -2.9624854104
  O        -8.1685743898       -2.7562864935       -2.2769679175
  O        -9.8293124780       -3.4993302663       -1.0042472880
  C        -6.7198117275       -1.5155721631       -7.0057360974
  H        -7.7266400310       -1.9701098143       -7.1795729881
  O        -6.3208037730       -1.2812141421       -5.7891801227
  O        -6.0546670581       -1.2647410752       -8.0219575549
  C        -1.9610306020        5.6962737072       -7.4797868569
  H        -1.8068881661        6.7616764611       -7.4798700689
  O        -2.4613788677        5.1953402046       -6.4147373301
  O        -1.7592038190        5.0404242691       -8.5376948407
  C        -1.7153677193        9.0065729983       -3.7807068554
  H        -1.3518565997        9.2891789052       -4.8285272378
  O        -1.7735635219        7.7204009534       -3.5311974415
  O        -1.9589811591        9.8892286280       -2.9296575010
  C         2.5176986766        8.6527359013       -4.1276241396
  H         2.7356319561        9.0838176512       -5.0545617483
  O         2.0941304229        7.4607563111       -4.0382054964
  O         2.6632020791        9.4136986823       -3.1567247192
  C         1.7405814703        5.3615037054       -8.2026998584
  H         1.4592813282        6.4433815072       -8.3446733349
  O         2.2712544771        5.0744229803       -7.0359036782
  O         1.5374971892        4.4786315137       -9.0204193621
  C         9.4791869119        2.6134878200        3.9079418032
  H         9.6264681644        3.4611325178        4.5867541287
  O         8.5294682966        2.7206869475        3.0468687327
  O        10.1884170796        1.5361363159        4.0354546634
  C         6.6320899766        7.0427804887        3.3240585285
  H         7.5183451153        7.1103565644        4.0025867163
  O         6.4921259472        6.1579139584        2.4473334656
  O         5.8014508194        7.8970951585        3.5804466065
  C         4.7468288793        5.8510846562        6.9391041765
  H         5.6837062732        5.7110173508        7.4566454645
  O         4.3315486404        4.9881730889        6.0840680113
  O         4.1390624477        6.9214380767        7.1338855679
  C         7.5642974957        1.7429307679        7.1823006621
  H         8.1116275708        2.6102062210        7.6466333920
  O         6.7423080014        2.0330978891        6.2208765696
  O         7.8434776238        0.5800715711        7.5931108165
     227
 i =        1, time =        1.000, E =       -17.1759309409
 Cd        -8.6193440664        0.4796506843        3.4771742231
 Cd        -5.8715491981       -0.2571773296        7.1143954308
 Cd        -8.4082324241       -2.1541473526        0.3852245718
 Cd        -6.8927320254       -3.2918011822        3.9610950134
 Cd        -3.6901786622       -3.7004063696        7.3823876431
 Cd        -6.4419857644       -6.2357650319        0.4642650283
 Cd        -4.3123489846       -6.8296311092        3.9052329008
 Cd        -6.1163956136        3.8609340527        2.9055798142
 Cd        -3.6066379062        2.8812374579        6.5904116871
 Cd        -6.7534361257        1.1872432435       -0.3192273307
 Cd        -4.0444346512        0.0755192497        3.0501867117
 Cd        -1.7741843438       -0.3125833849        6.8335956691
 Cd        -6.3661080881       -1.4624505239       -3.4401795810
 Cd        -4.3613620133       -3.1217798082       -0.1745492012
 Cd        -2.2426131877       -3.6215786845        3.6336131907
 Cd         0.1787021590       -3.9615981034        7.0369454780
 Cd        -4.2693907271       -5.9882295766       -2.9988690331
 Cd        -2.2487165353       -6.7966308217        0.6791560452
 Cd         0.0677852740       -7.3030092540        3.8542375341
 Cd        -4.0803015850        7.4119296687        2.4182852983
 Cd        -1.6108060562        6.4879364021        6.2509685969
 Cd        -4.3325454628        4.8128147731       -0.6769570128
 Cd        -1.8304028494        3.6696037811        3.1589380340
 Cd         0.4898065897        3.1633383728        6.7205447246
 Cd        -4.5996322090        2.0001213044       -4.0890212836
 Cd        -2.1629061193        1.0181341681       -0.4517587533
 Cd         0.1384317334       -0.0681657927        3.1344199301
 Cd         2.6424405044       -0.6635583852        6.8959164228
 Cd        -4.1541015100       -0.5351509116       -6.9611320747
 Cd        -2.2031863852       -1.8490972399       -3.4900353491
 Cd         0.0358058725       -2.8474990906       -0.0251007794
 Cd         2.4397141411       -3.8215692664        3.5304643161
 Cd         4.5938315541       -4.2152069977        6.5946947947
 Cd        -2.6317084810       -4.5699803572       -6.0785504625
 Cd        -0.3609636323       -6.1210726743       -3.0631404913
 Cd         1.9864082330       -6.8523594764       -0.0374610694
 Cd         4.3578655925       -7.5050397246        3.0974036109
 Cd        -2.4320433747        8.2867373210       -1.2003797679
 Cd         0.1211452757        6.7911527069        2.0747775428
 Cd         2.2581223626        6.3879394000        5.9826436180
 Cd        -2.2740333938        5.5405586055       -4.1121386243
 Cd         0.1544566575        4.6148732789       -0.9823441374
 Cd         2.6165230141        3.7533614459        2.4610414237
 Cd         4.3939374431        2.5015419257        5.6447120372
 Cd        -2.3864705080        3.0937323773       -7.5398963098
 Cd        -0.1312624032        1.7709360990       -4.3474213744
 Cd         2.1531823304        0.8600314342       -0.9632079202
 Cd         4.3034864136       -0.4402501588        2.5248204472
 Cd         6.4920383658       -0.6517653580        6.0105106211
 Cd         0.4042472447       -0.5927842693       -7.0621385098
 Cd         2.1513211053       -1.8411094258       -3.9633389984
 Cd         4.1299926088       -2.9780213931       -0.5482378032
 Cd         6.9198273955       -3.7969737121        2.8855414126
 Cd         1.0695802919       -4.7692074231       -6.7906764905
 Cd         3.6506436289       -5.7625244066       -3.6177221353
 Cd         5.7329690223       -6.5640234692       -0.3327858264
 Cd         2.4551094245        8.1223113456       -1.1566428660
 Cd         4.4053756478        7.2897970720        1.7948358239
 Cd         2.3804081568        5.2452248221       -4.8087185026
 Cd         4.8189878376        4.7184662155       -1.4284069920
 Cd         6.7582460981        3.8401587141        2.0311445742
 Cd         2.6217812039        2.7829308315       -7.7033828336
 Cd         4.8493409986        1.7846823102       -4.5231396879
 Cd         6.7277309725        1.0650072163       -0.9631204492
 Cd         8.8867473116        0.4155879107        2.4348034498
 Cd         4.3618197308       -0.9226459328       -7.7309204450
 Cd         6.7427842074       -1.9756278520       -4.2012683073
 Cd         8.5291382045       -2.6208089396       -0.2527998324
 Se        -9.0547620933        0.2428840808        0.9183136830
 Se        -6.3727562633       -0.6564978747        4.4183085696
 Se        -3.9345295956       -1.3489532124        8.2965258666
 Se        -6.5831090517       -3.7425403422        1.3880618364
 Se        -4.5790566427       -4.2748621508        4.8597395443
 Se        -4.6122331127       -7.7765670144        1.5328444754
 Se        -6.6422525106        3.9855439255        0.4576827514
 Se        -4.0719401118        2.6208419187        3.9142965472
 Se        -1.6333121872        2.0117545993        7.9250972165
 Se        -6.7116824599        0.9829024209       -3.1654366255
 Se        -4.4070619868       -0.2111902293        0.3949016877
 Se        -2.0531173653       -1.1153353106        4.2593799080
 Se         0.4059977953       -1.5661700269        8.0650534765
 Se        -4.4160560722       -3.1299926366       -2.8046691680
 Se        -2.2374302666       -4.0915795998        0.9472079101
 Se         0.1530519954       -4.8127388489        4.4857988457
 Se        -2.4165650694       -7.4205935575       -2.0539501124
 Se        -0.0669400932       -7.8791233602        1.3095584941
 Se        -4.5521142320        7.5948360732       -0.0126123005
 Se        -1.8467593231        6.3633032778        3.5400818086
 Se         0.4037036692        5.8261588531        7.5858657838
 Se        -4.4660248663        4.5539591308       -3.3489427820
 Se        -2.0809657778        3.7152414056        0.3431669137
 Se         0.4982208670        2.6969976143        3.7286837160
 Se         2.7717881070        1.9958604004        7.6261750758
 Se        -4.6131644962        2.0747468357       -6.9049045789
 Se        -2.2788779832        0.8535019013       -3.1261041034
 Se         0.0145636135       -0.1632290040        0.3854017146
 Se         2.3129791961       -1.3189008166        3.9990112870
 Se         4.8631563195       -1.8843063912        7.7353792511
 Se        -2.0701978322       -1.9664142026       -6.4603699634
 Se        -0.0447184083       -3.1599218807       -2.8087828827
 Se         2.2323163221       -4.2314433182        0.7809331142
 Se         4.8362335949       -4.9530899380        4.0967232806
 Se        -0.7551525005       -6.2848045360       -5.8413908663
 Se         1.9250059434       -7.4790107585       -2.6076198759
 Se         4.2593650527       -8.3791733960        0.7364070981
 Se         0.0356473075        7.3686091626       -0.4913021391
 Se         2.3809112574        6.5252132198        3.1424815076
 Se         0.0437271935        4.4288081471       -3.5939988549
 Se         2.5163684381        3.6274429600       -0.0568631295
 Se         4.7726955320        2.4661717503        3.1253272076
 Se         0.0455172618        1.9299405425       -6.9705032721
 Se         2.2758124045        0.7648331961       -3.6570495335
 Se         4.3766400736       -0.2853729361       -0.0178083366
 Se         6.9676989717       -1.1294528993        3.5582343662
 Se         2.2369761376       -2.2681685477       -6.6837692252
 Se         4.3737086513       -3.1974803298       -3.2156411188
 Se         6.4331289816       -4.1116846571        0.4129719620
 Se         4.8515352888        7.5524081342       -0.7458966918
 Se         4.8774494285        4.5489693217       -4.0122362450
 Se         7.0855732115        3.5934640862       -0.6428679813
 Se         4.7816845282        1.5264287071       -7.5555415548
 Se         6.9185421751        0.6112164220       -3.7073511615
 Se         9.1068619027       -0.0627092921       -0.0923142364
  C         6.9966702506       -6.9497957630       -2.8612716031
  H         7.7649322095       -7.1224747738       -3.6684216540
  O         5.8439758961       -6.4672268885       -3.1400343134
  O         7.2885560429       -7.2741269779       -1.6936449813
  C         3.3950855045       -6.2672819691       -6.9491570464
  H         4.3444066225       -6.8936096686       -7.0753272229
  O         3.0187955451       -5.7908367379       -5.7820080134
  O         2.6176765572       -6.1688524535       -7.9239505672
  C         6.3106270886       -2.9078655077       -7.4910058514
  H         7.1299137504       -3.7048862282       -7.4466889051
  O         6.0085045795       -2.3181550265       -6.3474715913
  O         5.9393041208       -2.4741998209       -8.6124281449
  C         8.9774127683       -3.3708896749       -3.4296313940
  H         9.9250180562       -3.8774829974       -3.1826003730
  O         8.5682185178       -3.4148414386       -4.6045866367
  O         8.2716791734       -2.6967114547       -2.5200739676
  C         9.7980410077       -4.6251877022        2.1809847476
  H        10.6408655401       -5.3318691344        2.3887999993
  O         9.7470803916       -4.1804603215        0.9926084731
  O         9.0285612360       -4.5681031778        3.1870383398
  C        -2.8217177170       -8.8884030453        5.3598599627
  H        -2.4154187803       -9.9024293192        5.4343946394
  O        -1.9847531143       -7.9305981662        5.0422871395
  O        -4.0904489455       -8.7273595936        5.4043766580
  C         2.9969125837       -8.6915855213        5.2874323637
  H         2.6967725338       -9.0398269484        6.2934215078
  O         1.9993695431       -8.3578220821        4.5594066378
  O         4.2233467399       -8.6006264641        4.9155849918
  C         2.8792856649       -5.7053294045        8.2323992281
  H         2.3955873073       -6.3773024893        8.9303283437
  O         2.2190234955       -4.8088278403        7.6162839540
  O         4.1498238794       -5.9034446308        8.1535365905
  C        -2.5347046154       -5.9173520768        8.5219641698
  H        -2.0052498086       -6.7390725628        9.0096019785
  O        -1.9214000203       -5.2582719157        7.5983180045
  O        -3.6522359289       -5.5083665727        8.8927048264
  C        -6.8630607241        2.3027116913        7.3891583095
  H        -7.2086193538        3.3071349018        7.3885257928
  O        -5.6212954919        2.1590698553        7.5336585656
  O        -7.6694813756        1.3702265839        7.1999444869
  C        -4.1170079645        6.2827825080        7.2281580649
  H        -5.2418933127        6.2896177269        7.3832000201
  O        -3.5266474552        5.2290276744        6.7738001900
  O        -3.5910179989        7.4672875371        7.3179933485
  C        -6.2567265948        7.1462137753        4.0781050308
  H        -7.2111390447        7.1649409639        4.6689854642
  O        -5.8089901261        6.0478803575        3.6278651314
  O        -5.6127276700        8.2206856777        3.8487211288
  C        -9.2741835047        2.9617361914        4.4604884471
  H        -9.7855372140        3.8838940690        4.7760086716
  O        -8.0587863163        3.0118702396        4.1192575610
  O       -10.0810604440        1.9792430042        4.3921981008
  C        -9.6032546307       -3.5282060325        4.2551521008
  H       -10.5971720209       -3.6001750875        4.7566807035
  O        -9.3831992229       -2.7227649003        3.2942792176
  O        -8.6786278602       -4.3016885074        4.7629961240
  C        -5.4081387618       -6.0792097294       -6.1561687045
  H        -6.0546960796       -6.5859836395       -6.8890942905
  O        -5.3109963579       -6.5040377272       -4.9651971448
  O        -4.7983767660       -5.0927239946       -6.6852695790
  C        -7.4874781261       -7.2705344487       -1.8348007139
  H        -7.8388434959       -7.7173330376       -2.7530342297
  O        -6.3887135141       -6.5549380265       -1.8842719504
  O        -8.0716377043       -7.4408606171       -0.7457961830
  C        -9.2562428334       -3.4270114671       -2.1219645136
  H        -9.5270787848       -4.0663584857       -2.9594189931
  O        -8.1697856962       -2.7553778228       -2.2726623812
  O        -9.8241638214       -3.4939406614       -1.0091856089
  C        -6.7206957661       -1.5101673961       -7.0045752777
  H        -7.7450574417       -1.9674181007       -7.1698505571
  O        -6.3197395686       -1.2781473510       -5.7990274362
  O        -6.0632743040       -1.2634877747       -8.0154891677
  C        -1.9628827983        5.6954844548       -7.4852938628
  H        -1.7770888886        6.7764005651       -7.4923242406
  O        -2.4611388497        5.1866879031       -6.4087245989
  O        -1.7564042007        5.0403945553       -8.5283162010
  C        -1.7168688889        9.0074822303       -3.7839166132
  H        -1.3493405476        9.2660238074       -4.8465614694
  O        -1.7700885915        7.7194819521       -3.5245866236
  O        -1.9637606596        9.8895135523       -2.9407835753
  C         2.5062190945        8.6538643678       -4.1272910728
  H         2.7131102182        9.0638249498       -5.0476060874
  O         2.0944584248        7.4532259467       -4.0306924400
  O         2.6627197704        9.4111373445       -3.1551977512
  C         1.7411302942        5.3672397234       -8.1968448598
  H         1.4358383610        6.4416008070       -8.3632925476
  O         2.2781433965        5.0765460753       -7.0407495464
  O         1.5312899951        4.4833136165       -9.0175233119
  C         9.4768439415        2.6096230983        3.9000102204
  H         9.6131090334        3.4671477718        4.5843902861
  O         8.5279925164        2.7173242116        3.0491827869
  O        10.1884997188        1.5401258450        4.0330586298
  C         6.6326459125        7.0382756706        3.3282154855
  H         7.5082674956        7.1289998248        4.0070788575
  O         6.4944182933        6.1603954948        2.4465708311
  O         5.7954462633        7.9029732674        3.5812516317
  C         4.7447755005        5.8524700302        6.9353700129
  H         5.7085862008        5.7040540943        7.4370666698
  O         4.3285353276        4.9885299994        6.0814815655
  O         4.1456620267        6.9223972310        7.1371307968
  C         7.5603309323        1.7452823701        7.1878507085
  H         8.1158840311        2.6116602203        7.6593692779
  O         6.7458235139        2.0301880292        6.2244333502
  O         7.8434755413        0.5821273908        7.5894534441
     227
 i =        2, time =        2.000, E =       -17.1913643170
 Cd        -8.6170038067        0.4783511045        3.4767845435
 Cd        -5.8708179913       -0.2575842645        7.1136455185
 Cd        -8.4089328135       -2.1552252265        0.3836337258
 Cd        -6.8897006861       -3.2939049623        3.9621396949