#     Step Nr.          Time[fs]        Kin.[a.u.]          Temp[K]            Pot.[a.u.]        Cons Qty[a.u.]        UsedTime[s]
         0            0.000000         0.768111062       300.000000000        -6.322609514        -5.549591123         0.000000000
        10           25.000000         0.758817268       296.370136928        -6.304836161        -5.549615837         0.034351001
        20           50.000000         0.700314461       273.520782002        -6.253080540        -5.549680691         0.032918001
        30           75.000000         0.608300834       237.583156158        -6.174695989        -5.549775989         0.034006000
        40          100.000000         0.520959244       203.470280619        -6.083445078        -5.549889878         0.044086000
        50          125.000000         0.455591468       177.939684969        -5.994246311        -5.550017714         0.035207000
        60          150.000000         0.400117566       156.273325185        -5.920039432        -5.550155071         0.116756000
        70          175.000000         0.358045276       139.841213169        -5.864376744        -5.550290605         0.090328000
        80          200.000000         0.336442976       131.404034826        -5.824730624        -5.550417940         0.095655002
        90          225.000000         0.343775626       134.267937266        -5.798383103        -5.550536492         0.090181001
       100          250.000000         0.342102579       133.614497648        -5.782157245        -5.550645322         0.088937001
       110          275.000000         0.352155804       137.540970803        -5.772194955        -5.550745642         0.089621000
       120          300.000000         0.372111349       145.334978644        -5.762378327        -5.550836209         0.084855001
       130          325.000000         0.378996825       148.024228636        -5.748026009        -5.550915921         0.081346000
       140          350.000000         0.388356206       151.679708391        -5.730359159        -5.550984086         0.059928998
       150          375.000000         0.388005662       151.542797092        -5.716388912        -5.551048817         0.061414000
       160          400.000000         0.382986949       149.582645604        -5.709597747        -5.551114808         0.059746999
       170          425.000000         0.393306157       153.613003226        -5.704553734        -5.551175177         0.045304999
       180          450.000000         0.396326306       154.792578595        -5.694449308        -5.551227903         0.052652000
       190          475.000000         0.404551990       158.005271749        -5.677957744        -5.551277591         0.047845000
       200          500.000000         0.417372629       163.012609866        -5.660431333        -5.551327897         0.057124998
       210          525.000000         0.427874094       167.114151255        -5.646629001        -5.551379982         0.055734999
       220          550.000000         0.436147305       170.345407065        -5.636290575        -5.551433756         0.056100002
       230          575.000000         0.433097256       169.154154008        -5.625702523        -5.551481654         0.039701002
       240          600.000000         0.440283286       171.960791156        -5.612165149        -5.551520421         0.051716000
       250          625.000000         0.433973316       169.496315361        -5.598373137        -5.551550617         0.036584999
       260          650.000000         0.444192887       173.487758046        -5.590189605        -5.551575862         0.047584999
       270          675.000000         0.462012183       180.447414058        -5.588750257        -5.551599127         0.044650000
       280          700.000000         0.468932705       183.150352137        -5.587993200        -5.551617349         0.043630000
       290          725.000000         0.466763893       182.303282515        -5.581639432        -5.551629108         0.047183000
       300          750.000000         0.476900742       186.262416839        -5.569219830        -5.551635778         0.044056000
       310          775.000000         0.484323996       189.161705900        -5.555900781        -5.551645828         0.037920998
       320          800.000000         0.491163593       191.833037459        -5.545536418        -5.551659288         0.046170000
       330          825.000000         0.495917469       193.689751692        -5.540442107        -5.551676624         0.032704001
       340          850.000000         0.503036541       196.470236910        -5.538411643        -5.551693286         0.044529000
       350          875.000000         0.528081097       206.251852076        -5.535610698        -5.551704668         0.152384000
       360          900.000000         0.526193139       205.514475309        -5.529913905        -5.551706827         0.204056999
       370          925.000000         0.540513930       211.107725294        -5.523358246        -5.551703797         0.042990001
       380          950.000000         0.541590547       211.528217919        -5.518792680        -5.551698521         0.051921999
       390          975.000000         0.552092080       215.629786427        -5.516328581        -5.551692304         0.049010001
       400         1000.000000         0.552391422       215.746699836        -5.513189482        -5.551683917         0.107496001
       410         1025.000000         0.555945802       217.134928546        -5.508702453        -5.551678412         0.155903999
       420         1050.000000         0.576380161       225.115945886        -5.501666909        -5.551674619         0.064879000
       430         1075.000000         0.584168103       228.157670936        -5.491153878        -5.551671626         0.062174000
       440         1100.000000         0.579890576       226.487003778        -5.480025850        -5.551676345         0.061698999
       450         1125.000000         0.574458613       224.365449804        -5.471155775        -5.551688767         0.060255000
       460         1150.000000         0.585906512       228.836639015        -5.465655628        -5.551706212         0.062199000
       470         1175.000000         0.580370284       226.674362426        -5.461979680        -5.551727681         0.088496000
       480         1200.000000         0.574670959       224.448385626        -5.458246621        -5.551751020         0.064975999
       490         1225.000000         0.584143198       228.147943905        -5.453267730        -5.551770405         0.063305000
       500         1250.000000         0.575620787       224.819358296        -5.447914162        -5.551784800         0.063083000
       510         1275.000000         0.586212887       228.956299118        -5.445421317        -5.551798427         0.085139999
       520         1300.000000         0.590429147       230.603037651        -5.446055714        -5.551813528         0.067265000
       530         1325.000000         0.607764225       237.373573287        -5.446295394        -5.551826608         0.083591001
       540         1350.000000         0.601998909       235.121822429        -5.443831403        -5.551838929         0.077933000
       550         1375.000000         0.613436417       239.588953148        -5.438951034        -5.551852082         0.066955999
       560         1400.000000         0.610502399       238.443017994        -5.431485517        -5.551865819         0.088307001
       570         1425.000000         0.609470977       238.040177004        -5.422488130        -5.551879936         0.088309001
       580         1450.000000         0.598019634       233.567642934        -5.413907448        -5.551896092         0.084015001
       590         1475.000000         0.584329872       228.220853013        -5.406465419        -5.551911497         0.085137999
       600         1500.000000         0.595856807       232.722910883        -5.402623913        -5.551927055         0.059172001
       610         1525.000000         0.598933196       233.924451480        -5.404599885        -5.551946168         0.064365000
       620         1550.000000         0.602966717       235.499817848        -5.409573537        -5.551961170         0.062099999
       630         1575.000000         0.622340351       243.066549377        -5.412893546        -5.551970294         0.093761001
       640         1600.000000         0.635408529       248.170568210        -5.411500813        -5.551972287         0.059907001
       650         1625.000000         0.638504506       249.379759547        -5.406734673        -5.551973857         0.065412000
       660         1650.000000         0.645748469       252.209023309        -5.402564529        -5.551980457         0.065205000
       670         1675.000000         0.636976932       248.783137159        -5.399857468        -5.551997163         0.055864999
       680         1700.000000         0.646732108       252.593201855        -5.398630093        -5.552025311         0.040304001
       690         1725.000000         0.644932760       251.890433083        -5.396793579        -5.552063134         0.040045001
       700         1750.000000         0.655020478       255.830378108        -5.392219175        -5.552103036         0.056729998
       710         1775.000000         0.654063260       255.456519065        -5.384319525        -5.552141054         0.053766001
       720         1800.000000         0.653301192       255.158879109        -5.373001415        -5.552173570         0.053521000
       730         1825.000000         0.641280266       250.463883955        -5.357962088        -5.552195769         0.051113000
       740         1850.000000         0.635561502       248.230314769        -5.341113285        -5.552206084         0.051258000
       750         1875.000000         0.621682259       242.809519242        -5.326288752        -5.552206575         0.044421999
       760         1900.000000         0.628815342       245.595477023        -5.315003724        -5.552197311         0.042446999
       770         1925.000000         0.644399934       251.682328110        -5.306460109        -5.552182903         0.040948000
       780         1950.000000         0.645110904       251.960010568        -5.299164675        -5.552165923         0.040348001
       790         1975.000000         0.655471943       256.006706421        -5.292458400        -5.552148887         0.048408000
       800         2000.000000         0.661590191       258.396301369        -5.285289257        -5.552131057         0.042292001
       810         2025.000000         0.658896623       257.344278366        -5.277442022        -5.552116053         0.035882000
       820         2050.000000         0.649156573       253.540121650        -5.270524155        -5.552105632         0.031013999
       830         2075.000000         0.643305095       251.254718643        -5.265569825        -5.552097324         0.048170000
       840         2100.000000         0.658092605       257.030254254        -5.263304988        -5.552093286         0.045054000
       850         2125.000000         0.665652156       259.982777036        -5.263065237        -5.552089629         0.043132000
       860         2150.000000         0.669978645       261.672567525        -5.264702046        -5.552086450         0.044044999
       870         2175.000000         0.675653536       263.889001211        -5.267999054        -5.552088112         0.064254001
       880         2200.000000         0.680625064       265.830723659        -5.269658189        -5.552091528         0.043192999
       890         2225.000000         0.672333165       262.592168949        -5.266339498        -5.552094426         0.044957001
       900         2250.000000         0.678176223       264.874283115        -5.257602722        -5.552094906         0.045751002
       910         2275.000000         0.673130961       262.903762965        -5.246250691        -5.552097220         0.044655001
       920         2300.000000         0.662178063       258.625905467        -5.235845725        -5.552101287         0.047425000
       930         2325.000000         0.651498429       254.454776802        -5.228736032        -5.552104589         0.043328000
       940         2350.000000         0.647298498       252.814415857        -5.225996076        -5.552106186         0.038913000
       950         2375.000000         0.644446946       251.700689367        -5.225687351        -5.552104496         0.043234000
       960         2400.000000         0.629893855       246.016710222        -5.225303292        -5.552097107         0.046149001
       970         2425.000000         0.627060515       244.910096941        -5.224516425        -5.552083857         0.039636999
       980         2450.000000         0.630468454       246.241130657        -5.224496380        -5.552072437         0.037160000
       990         2475.000000         0.644435599       251.696257657        -5.226209418        -5.552064780         0.047597999
      1000         2500.000000         0.646540780       252.518475321        -5.228509904        -5.552059519         0.043413000
