#     Step Nr.          Time[fs]        Kin.[a.u.]          Temp[K]            Pot.[a.u.]        Cons Qty[a.u.]        UsedTime[s]
         0            0.000000         0.768111062       300.000000000        -6.322609514        -5.549591123         0.000000000
        10           25.000000         0.758817268       296.370136928        -6.304836161        -5.549615837         0.034351001
        20           50.000000         0.700314461       273.520782002        -6.253080540        -5.549680691         0.032918001
        30           75.000000         0.608300834       237.583156158        -6.174695989        -5.549775989         0.034006000
        40          100.000000         0.520959244       203.470280619        -6.083445078        -5.549889878         0.044086000
        50          125.000000         0.455591468       177.939684969        -5.994246311        -5.550017714         0.035207000
        60          150.000000         0.400117566       156.273325185        -5.920039432        -5.550155071         0.116756000
        70          175.000000         0.358045276       139.841213169        -5.864376744        -5.550290605         0.090328000
        80          200.000000         0.336442976       131.404034826        -5.824730624        -5.550417940         0.095655002
        90          225.000000         0.343775626       134.267937266        -5.798383103        -5.550536492         0.090181001
       100          250.000000         0.342102579       133.614497648        -5.782157245        -5.550645322         0.088937001
       110          275.000000         0.352155804       137.540970803        -5.772194955        -5.550745642         0.089621000
       120          300.000000         0.372111349       145.334978644        -5.762378327        -5.550836209         0.084855001
       130          325.000000         0.378996825       148.024228636        -5.748026009        -5.550915921         0.081346000
       140          350.000000         0.388356206       151.679708391        -5.730359159        -5.550984086         0.059928998
       150          375.000000         0.388005662       151.542797092        -5.716388912        -5.551048817         0.061414000
       160          400.000000         0.382986949       149.582645604        -5.709597747        -5.551114808         0.059746999
       170          425.000000         0.393306157       153.613003226        -5.704553734        -5.551175177         0.045304999
       180          450.000000         0.396326306       154.792578595        -5.694449308        -5.551227903         0.052652000
       190          475.000000         0.404551990       158.005271749        -5.677957744        -5.551277591         0.047845000
       200          500.000000         0.417372629       163.012609866        -5.660431333        -5.551327897         0.057124998
       210          525.000000         0.427874094       167.114151255        -5.646629001        -5.551379982         0.055734999
       220          550.000000         0.436147305       170.345407065        -5.636290575        -5.551433756         0.056100002
       230          575.000000         0.433097256       169.154154008        -5.625702523        -5.551481654         0.039701002
       240          600.000000         0.440283286       171.960791156        -5.612165149        -5.551520421         0.051716000
       250          625.000000         0.433973316       169.496315361        -5.598373137        -5.551550617         0.036584999
       260          650.000000         0.444192887       173.487758046        -5.590189605        -5.551575862         0.047584999
       270          675.000000         0.462012183       180.447414058        -5.588750257        -5.551599127         0.044650000
       280          700.000000         0.468932705       183.150352137        -5.587993200        -5.551617349         0.043630000
       290          725.000000         0.466763893       182.303282515        -5.581639432        -5.551629108         0.047183000
       300          750.000000         0.476900742       186.262416839        -5.569219830        -5.551635778         0.044056000
       310          775.000000         0.484323996       189.161705900        -5.555900781        -5.551645828         0.037920998
       320          800.000000         0.491163593       191.833037459        -5.545536418        -5.551659288         0.046170000
       330          825.000000         0.495917469       193.689751692        -5.540442107        -5.551676624         0.032704001
       340          850.000000         0.503036541       196.470236910        -5.538411643        -5.551693286         0.044529000
       350          875.000000         0.528081097       206.251852076        -5.535610698        -5.551704668         0.152384000
       360          900.000000         0.526193139       205.514475309        -5.529913905        -5.551706827         0.204056999
       370          925.000000         0.540513930       211.107725294        -5.523358246        -5.551703797         0.042990001
       380          950.000000         0.541590547       211.528217919        -5.518792680        -5.551698521         0.051921999
       390          975.000000         0.552092080       215.629786427        -5.516328581        -5.551692304         0.049010001
       400         1000.000000         0.552391422       215.746699836        -5.513189482        -5.551683917         0.107496001
       410         1025.000000         0.555945802       217.134928546        -5.508702453        -5.551678412         0.155903999
       420         1050.000000         0.576380161       225.115945886        -5.501666909        -5.551674619         0.064879000
       430         1075.000000         0.584168103       228.157670936        -5.491153878        -5.551671626         0.062174000
       440         1100.000000         0.579890576       226.487003778        -5.480025850        -5.551676345         0.061698999
       450         1125.000000         0.574458613       224.365449804        -5.471155775        -5.551688767         0.060255000
       460         1150.000000         0.585906512       228.836639015        -5.465655628        -5.551706212         0.062199000
       470         1175.000000         0.580370284       226.674362426        -5.461979680        -5.551727681         0.088496000
       480         1200.000000         0.574670959       224.448385626        -5.458246621        -5.551751020         0.064975999
       490         1225.000000         0.584143198       228.147943905        -5.453267730        -5.551770405         0.063305000
       500         1250.000000         0.575620787       224.819358296        -5.447914162        -5.551784800         0.063083000
       510         1275.000000         0.586212887       228.956299118        -5.445421317        -5.551798427         0.085139999
       520         1300.000000         0.590429147       230.603037651        -5.446055714        -5.551813528         0.067265000
       530         1325.000000         0.607764225       237.373573287        -5.446295394        -5.551826608         0.083591001
       540         1350.000000         0.601998909       235.121822429        -5.443831403        -5.551838929         0.077933000
       550         1375.000000         0.613436417       239.588953148        -5.438951034        -5.551852082         0.066955999
       560         1400.000000         0.610502399       238.443017994        -5.431485517        -5.551865819         0.088307001
       570         1425.000000         0.609470977       238.040177004        -5.422488130        -5.551879936         0.088309001
       580         1450.000000         0.598019634       233.567642934        -5.413907448        -5.551896092         0.084015001
       590         1475.000000         0.584329872       228.220853013        -5.406465419        -5.551911497         0.085137999
       600         1500.000000         0.595856807       232.722910883        -5.402623913        -5.551927055         0.059172001
       610         1525.000000         0.598933196       233.924451480        -5.404599885        -5.551946168         0.064365000
       620         1550.000000         0.602966717       235.499817848        -5.409573537        -5.551961170         0.062099999
       630         1575.000000         0.622340351       243.066549377        -5.412893546        -5.551970294         0.093761001
       640         1600.000000         0.635408529       248.170568210        -5.411500813        -5.551972287         0.059907001
       650         1625.000000         0.638504506       249.379759547        -5.406734673        -5.551973857         0.065412000
       660         1650.000000         0.645748469       252.209023309        -5.402564529        -5.551980457         0.065205000
       670         1675.000000         0.636976932       248.783137159        -5.399857468        -5.551997163         0.055864999
       680         1700.000000         0.646732108       252.593201855        -5.398630093        -5.552025311         0.040304001
       690         1725.000000         0.644932760       251.890433083        -5.396793579        -5.552063134         0.040045001
       700         1750.000000         0.655020478       255.830378108        -5.392219175        -5.552103036         0.056729998
       710         1775.000000         0.654063260       255.456519065        -5.384319525        -5.552141054         0.053766001
       720         1800.000000         0.653301192       255.158879109        -5.373001415        -5.552173570         0.053521000
       730         1825.000000         0.641280266       250.463883955        -5.357962088        -5.552195769         0.051113000
       740         1850.000000         0.635561502       248.230314769        -5.341113285        -5.552206084         0.051258000
       750         1875.000000         0.621682259       242.809519242        -5.326288752        -5.552206575         0.044421999
       760         1900.000000         0.628815342       245.595477023        -5.315003724        -5.552197311         0.042446999
       770         1925.000000         0.644399934       251.682328110        -5.306460109        -5.552182903         0.040948000
       780         1950.000000         0.645110904       251.960010568        -5.299164675        -5.552165923         0.040348001
       790         1975.000000         0.655471943       256.006706421        -5.292458400        -5.552148887         0.048408000
       800         2000.000000         0.661590191       258.396301369        -5.285289257        -5.552131057         0.042292001
       810         2025.000000         0.658896623       257.344278366        -5.277442022        -5.552116053         0.035882000
       820         2050.000000         0.649156573       253.540121650        -5.270524155        -5.552105632         0.031013999
       830         2075.000000         0.643305095       251.254718643        -5.265569825        -5.552097324         0.048170000
       840         2100.000000         0.658092605       257.030254254        -5.263304988        -5.552093286         0.045054000
       850         2125.000000         0.665652156       259.982777036        -5.263065237        -5.552089629         0.043132000
       860         2150.000000         0.669978645       261.672567525        -5.264702046        -5.552086450         0.044044999
       870         2175.000000         0.675653536       263.889001211        -5.267999054        -5.552088112         0.064254001
       880         2200.000000         0.680625064       265.830723659        -5.269658189        -5.552091528         0.043192999
       890         2225.000000         0.672333165       262.592168949        -5.266339498        -5.552094426         0.044957001
       900         2250.000000         0.678176223       264.874283115        -5.257602722        -5.552094906         0.045751002
       910         2275.000000         0.673130961       262.903762965        -5.246250691        -5.552097220         0.044655001
       920         2300.000000         0.662178063       258.625905467        -5.235845725        -5.552101287         0.047425000
       930         2325.000000         0.651498429       254.454776802        -5.228736032        -5.552104589         0.043328000
       940         2350.000000         0.647298498       252.814415857        -5.225996076        -5.552106186         0.038913000
       950         2375.000000         0.644446946       251.700689367        -5.225687351        -5.552104496         0.043234000
       960         2400.000000         0.629893855       246.016710222        -5.225303292        -5.552097107         0.046149001
       970         2425.000000         0.627060515       244.910096941        -5.224516425        -5.552083857         0.039636999
       980         2450.000000         0.630468454       246.241130657        -5.224496380        -5.552072437         0.037160000
       990         2475.000000         0.644435599       251.696257657        -5.226209418        -5.552064780         0.047597999
      1000         2500.000000         0.646540780       252.518475321        -5.228509904        -5.552059519         0.043413000
      1010         2525.000000         0.656604897       256.449202565        -5.229801472        -5.552058116         0.040070001
      1020         2550.000000         0.653057427       255.063672402        -5.228526163        -5.552058381         0.045216000
      1030         2575.000000         0.646865368       252.645249199        -5.223685558        -5.552055335         0.042473001
      1040         2600.000000         0.650064427       253.894700724        -5.215486937        -5.552048212         0.038954001
      1050         2625.000000         0.653213942       255.124802115        -5.206642154        -5.552036662         0.037981000
      1060         2650.000000         0.657008954       256.607014482        -5.200641304        -5.552026714         0.063822001
      1070         2675.000000         0.658413596       257.155623434        -5.196348659        -5.552013981         0.042155001
      1080         2700.000000         0.674541636       263.454728209        -5.192704764        -5.551995393         0.038832000
      1090         2725.000000         0.674511746       263.443054012        -5.191952654        -5.551978196         0.046147000
      1100         2750.000000         0.684876617       267.491246205        -5.194315378        -5.551962488         0.038181001
      1110         2775.000000         0.702922817       274.539523966        -5.197533497        -5.551946443         0.036726002
      1120         2800.000000         0.711823451       278.015831452        -5.200784410        -5.551934258         0.036695000
      1130         2825.000000         0.706284957       275.852669760        -5.203501282        -5.551931470         0.035222000
      1140         2850.000000         0.692575706       270.498268216        -5.205246107        -5.551937961         0.039929001
      1150         2875.000000         0.696140430       271.890536956        -5.205583519        -5.551952500         0.036418000
      1160         2900.000000         0.701765797       274.087628333        -5.204066090        -5.551971817         0.038096001
      1170         2925.000000         0.711671369       277.956433014        -5.199961366        -5.551989996         0.037648000
      1180         2950.000000         0.701783651       274.094601307        -5.193734796        -5.552001705         0.035221001
      1190         2975.000000         0.704653853       275.215612187        -5.187248348        -5.552006533         0.055153999
      1200         3000.000000         0.700526405       273.603560641        -5.182612368        -5.552004369         0.039368000
      1210         3025.000000         0.711415868       277.856642139        -5.180901000        -5.551995008         0.037802000
      1220         3050.000000         0.726254696       283.652221303        -5.182381250        -5.551979542         0.033573000
      1230         3075.000000         0.736213090       287.541656576        -5.185091698        -5.551957189         0.033807000
      1240         3100.000000         0.735343436       287.201996895        -5.186734532        -5.551930688         0.028056001
      1250         3125.000000         0.740006968       289.023425851        -5.187183268        -5.551902246         0.028622000
      1260         3150.000000         0.733713045       286.565217596        -5.186950454        -5.551877007         0.020025000
      1270         3175.000000         0.728186102       284.406567740        -5.184693755        -5.551856064         0.034060001
      1280         3200.000000         0.720399582       281.365398128        -5.178707361        -5.551839836         0.036336999
      1290         3225.000000         0.711894018       278.043392631        -5.168653403        -5.551826595         0.033296000
      1300         3250.000000         0.716517460       279.849163376        -5.157282181        -5.551812431         0.035068002
      1310         3275.000000         0.705897422       275.701311062        -5.149673013        -5.551802936         0.034079000
      1320         3300.000000         0.709932287       277.277202053        -5.147767804        -5.551801137         0.050439000
      1330         3325.000000         0.717588233       280.267373851        -5.147625980        -5.551803391         0.033270000
      1340         3350.000000         0.716104627       279.687923693        -5.146501875        -5.551808071         0.051122000
      1350         3375.000000         0.720176099       281.278112766        -5.145739992        -5.551818628         0.036223000
      1360         3400.000000         0.734989351       287.063702655        -5.145806753        -5.551835133         0.034297001
      1370         3425.000000         0.727790058       284.251885395        -5.147862703        -5.551857384         0.033121999
      1380         3450.000000         0.741373362       289.557096429        -5.153584773        -5.551880834         0.022638001
      1390         3475.000000         0.749871617       292.876247141        -5.161028595        -5.551902534         0.037032999
      1400         3500.000000         0.745993432       291.361550283        -5.165232156        -5.551913520         0.032097999
      1410         3525.000000         0.737801083       288.161876444        -5.164278398        -5.551912936         0.032671999
      1420         3550.000000         0.735561709       287.287247569        -5.160607741        -5.551902655         0.033413000
      1430         3575.000000         0.729655077       284.980302942        -5.156837806        -5.551884192         0.052913999
      1440         3600.000000         0.731378191       285.653297148        -5.153926838        -5.551860370         0.033025999
      1450         3625.000000         0.734837259       287.004300407        -5.151732114        -5.551836220         0.054500001
      1460         3650.000000         0.740292379       289.134898249        -5.148619436        -5.551810477         0.036993999
      1470         3675.000000         0.741849330       289.742994295        -5.143579970        -5.551784990         0.033278000
      1480         3700.000000         0.740313406       289.143110743        -5.136648238        -5.551757885         0.035559000
      1490         3725.000000         0.734367033       286.820644868        -5.129795751        -5.551737423         0.035823999
      1500         3750.000000         0.735004407       287.069582862        -5.125430055        -5.551720315         0.032268001
      1510         3775.000000         0.744942018       290.950901098        -5.123588031        -5.551708279         0.032779001
      1520         3800.000000         0.753175943       294.166812933        -5.122051347        -5.551694059         0.054018000
      1530         3825.000000         0.772955611       301.892128617        -5.121835456        -5.551684444         0.035202000
      1540         3850.000000         0.765046856       298.803217954        -5.123987058        -5.551680042         0.033465000
      1550         3875.000000         0.756069908       295.297104332        -5.128026844        -5.551683266         0.036333000
      1560         3900.000000         0.771950895       301.499717964        -5.133711589        -5.551698133         0.035387000
      1570         3925.000000         0.783955981       306.188526596        -5.136825109        -5.551723925         0.031884000
      1580         3950.000000         0.775488827       302.881522878        -5.132886199        -5.551753849         0.033952000
      1590         3975.000000         0.769636445       300.595766687        -5.124822663        -5.551785988         0.032821000
      1600         4000.000000         0.748962965       292.521356491        -5.120154743        -5.551829342         0.032056998
      1610         4025.000000         0.739586439       288.859180325        -5.116923763        -5.551870635         0.031794000
      1620         4050.000000         0.732418468       286.059596690        -5.110318731        -5.551899957         0.033365000
      1630         4075.000000         0.726525457       283.757971934        -5.100129833        -5.551919594         0.032718001
      1640         4100.000000         0.723901712       282.733219994        -5.087856892        -5.551930205         0.033674000
      1650         4125.000000         0.714593434       279.097699657        -5.075368816        -5.551932841         0.035281001
      1660         4150.000000         0.698329184       272.745395443        -5.064029711        -5.551931854         0.032284001
      1670         4175.000000         0.672757152       262.757764704        -5.054800754        -5.551932824         0.034298001
      1680         4200.000000         0.671856473       262.405987792        -5.047201350        -5.551936299         0.033670999
      1690         4225.000000         0.673825548       263.175046712        -5.039180851        -5.551943073         0.056230001
      1700         4250.000000         0.672496067       262.655793312        -5.031879979        -5.551958408         0.032119000
      1710         4275.000000         0.670520061       261.884027475        -5.026965475        -5.551981000         0.032584000
      1720         4300.000000         0.678720772       265.086967143        -5.025284366        -5.552009150         0.032597000
      1730         4325.000000         0.689670939       269.363757593        -5.026987238        -5.552042067         0.032400999
      1740         4350.000000         0.703316343       274.693222570        -5.029848098        -5.552075653         0.032690000
      1750         4375.000000         0.703412433       274.730752552        -5.030983818        -5.552108278         0.032411000
      1760         4400.000000         0.710259986       277.405190997        -5.029631779        -5.552134755         0.033438001
      1770         4425.000000         0.702509825       274.378222119        -5.025782296        -5.552155438         0.034259001
      1780         4450.000000         0.703077782       274.600048116        -5.019808623        -5.552169730         0.032419000
      1790         4475.000000         0.693998708       271.054047894        -5.012682005        -5.552178511         0.031793000
      1800         4500.000000         0.689072359       269.129971053        -5.005630166        -5.552182308         0.032139001
      1810         4525.000000         0.676036351       264.038516738        -5.000306146        -5.552185033         0.052657001
      1820         4550.000000         0.680762216       265.884290743        -4.998147044        -5.552189831         0.033404000
      1830         4575.000000         0.692183601       270.345124046        -4.997109913        -5.552199433         0.031111000
      1840         4600.000000         0.697079031       272.257124981        -4.994107100        -5.552207453         0.035473000
      1850         4625.000000         0.691777428       270.186485950        -4.987115249        -5.552214914         0.032776000
      1860         4650.000000         0.679786543       265.503223430        -4.976179242        -5.552221932         0.033427000
      1870         4675.000000         0.692064624       270.298655477        -4.962824120        -5.552226289         0.033102000
      1880         4700.000000         0.690476962       269.678564870        -4.951233816        -5.552229901         0.031563999
      1890         4725.000000         0.670114989       261.725819043        -4.946598552        -5.552234741         0.034427000
      1900         4750.000000         0.688785623       269.017981031        -4.949867184        -5.552240692         0.033787999
      1910         4775.000000         0.700288084       273.510480284        -4.955421942        -5.552243007         0.035460001
      1920         4800.000000         0.705777476       275.654463906        -4.957573183        -5.552241133         0.035964001
      1930         4825.000000         0.713961223       278.850777577        -4.954813110        -5.552237680         0.035029000
      1940         4850.000000         0.714327801       278.993951521        -4.948404999        -5.552234216         0.034760999
      1950         4875.000000         0.691629176       270.128583412        -4.940263680        -5.552230136         0.035660001
      1960         4900.000000         0.684483193       267.337587315        -4.932703175        -5.552225238         0.035590999
      1970         4925.000000         0.670062812       261.705440527        -4.927165032        -5.552221605         0.032268999
      1980         4950.000000         0.682660665       266.625765061        -4.924784228        -5.552220889         0.051737001
      1990         4975.000000         0.693546230       270.877324235        -4.925358287        -5.552227455         0.034337999
      2000         5000.000000         0.708233035       276.613528006        -4.925262930        -5.552240978         0.034366000
      2010         5025.000000         0.715185889       279.329093680        -4.921530868        -5.552257327         0.032238999
      2020         5050.000000         0.699250419       273.105200926        -4.914969617        -5.552272263         0.034316000
      2030         5075.000000         0.697453060       272.403208855        -4.909591480        -5.552286278         0.047762001
      2040         5100.000000         0.690134582       269.544841872        -4.909021622        -5.552297957         0.035227001
      2050         5125.000000         0.703700756       274.843362313        -4.912455976        -5.552301305         0.034760000
      2060         5150.000000         0.689428171       269.268939762        -4.917608604        -5.552294399         0.032817001
      2070         5175.000000         0.701773739       274.090730226        -4.921780093        -5.552279145         0.028514000
      2080         5200.000000         0.698958195       272.991067452        -4.920639974        -5.552253315         0.034529001
      2090         5225.000000         0.689381219       269.250601957        -4.914048185        -5.552221327         0.033727000
      2100         5250.000000         0.681162187       266.040506721        -4.906631467        -5.552193210         0.032230001
      2110         5275.000000         0.685778719       267.843579024        -4.903117919        -5.552175292         0.032466000
      2120         5300.000000         0.688977050       269.092746271        -4.903150820        -5.552168203         0.034289999
      2130         5325.000000         0.694431917       271.223245473        -4.903264714        -5.552166041         0.032872999
      2140         5350.000000         0.695798772       271.757096138        -4.900721135        -5.552163811         0.033834999
      2150         5375.000000         0.690281716       269.602307776        -4.895920056        -5.552158793         0.033270001
      2160         5400.000000         0.693264250       270.767191772        -4.890254595        -5.552148551         0.034201000
      2170         5425.000000         0.689000478       269.101896379        -4.884882139        -5.552132976         0.034100000
      2180         5450.000000         0.688756051       269.006431161        -4.881497026        -5.552110645         0.033538001
      2190         5475.000000         0.688480610       268.898852564        -4.881683377        -5.552083805         0.031993000
      2200         5500.000000         0.701205677       273.868862930        -4.884996459        -5.552056874         0.034114001
      2210         5525.000000         0.705832961       275.676134552        -4.886687250        -5.552029045         0.033448000
      2220         5550.000000         0.701343793       273.922806967        -4.882181566        -5.552001827         0.031590000
      2230         5575.000000         0.683798662       267.070231030        -4.874348388        -5.551979901         0.033182001
      2240         5600.000000         0.689984309       269.486150016        -4.869998562        -5.551974851         0.033941001
      2250         5625.000000         0.688017347       268.717916498        -4.869211453        -5.551981148         0.032617999
      2260         5650.000000         0.685889902       267.887003551        -4.868432576        -5.551993456         0.031127999
      2270         5675.000000         0.691219579       269.968607584        -4.866015133        -5.552009074         0.031938000