 DBCSR| Multiplication driver                                               BLAS
 DBCSR| Multrec recursion limit                                              512
 DBCSR| Multiplication stack size                                           1000
 DBCSR| Maximum elements for images                                    UNLIMITED
 DBCSR| Multiplicative factor virtual images                                   1
 DBCSR| Multiplication size stacks                                             3


  **** **** ******  **  PROGRAM STARTED AT               2020-12-23 14:57:43.320
 ***** ** ***  *** **   PROGRAM STARTED ON                           192.168.2.6
 **    ****   ******    PROGRAM STARTED BY                              bvanbeek
 ***** **    ** ** **   PROGRAM PROCESS ID                                 34164
  **** **  *******  **  PROGRAM STARTED IN /Users/bvanbeek/Downloads/MM_MD_workd
                                           ir/md

 CP2K| version string:                                          CP2K version 6.1
 CP2K| source code revision number:                                    svn:18464
 CP2K| cp2kflags: omp no_statm_access accelerate
 CP2K| is freely available from                            https://www.cp2k.org/
 CP2K| Program compiled at                         Fri Apr 19 11:24:34 CEST 2019
 CP2K| Program compiled on                                         192.168.1.124
 CP2K| Program compiled for                       Darwin-IntelMacintosh-gfortran
 CP2K| Data directory path            /Users/bvanbeek/Documents/GitHub/cp2k/data
 CP2K| Input file name                                                     md.in

 GLOBAL| Force Environment number                                              1
 GLOBAL| Basis set file name                                           BASIS_SET
 GLOBAL| Potential file name                                           POTENTIAL
 GLOBAL| MM Potential file name                                     MM_POTENTIAL
 GLOBAL| Coordinate file name                                      __STD_INPUT__
 GLOBAL| Method name                                                        CP2K
 GLOBAL| Project name                                                       cp2k
 GLOBAL| Preferred FFT library                                             FFTW3
 GLOBAL| Preferred diagonalization lib.                                       SL
 GLOBAL| Run type                                                             MD
 GLOBAL| All-to-all communication in single precision                          F
 GLOBAL| FFTs using library dependent lengths                                  F
 GLOBAL| Global print level                                                  LOW
 GLOBAL| Total number of message passing processes                             1
 GLOBAL| Number of threads for this process                                    4
 GLOBAL| This output is from process                                           0
 GLOBAL| CPU model name : UNKNOWN

 MEMORY| system memory details [Kb]
 MEMORY|                        rank 0           min           max       average
 MEMORY| MemTotal                    0             0             0             0
 MEMORY| MemFree                     0             0             0             0
 MEMORY| Buffers                     0             0             0             0
 MEMORY| Cached                      0             0             0             0
 MEMORY| Slab                        0             0             0             0
 MEMORY| SReclaimable                0             0             0             0
 MEMORY| MemLikelyFree               0             0             0             0

 WARNING : FFT library FFTW3 is not available  Trying FFTSG as a default


                      ************* ******** ***********
                     ************* **********************
                     ****     **** ****      ***********
                     ******** ****  *******     ****
                     *******  ****   *******   ****
                     ****     ****       ****  ****
                     ****     **** **********  ****
                      ****     **** ********    ****
                     FRONTIERS IN SIMULATION TECHNOLOGY

                        C.J. Mundy, S. Balasubramanian,
                     Ken Bagchi, J. Hutter, Ari Seitsonen
                      IFW Kuo, T. Laino, J. VandeVondele
                                 Version 1.0




 EWALD| Summation is done by:                                               SPME
 EWALD| Alpha parameter [       ANGSTROM^-1]                              0.3500
 EWALD| Real Space Cutoff [          ANGSTROM]                            9.6398
 EWALD| G-space max. Miller index                         22        22        22
 EWALD| Spline interpolation order                                             4

 GENERATE|  Preliminary Number of Bonds generated:                             0
 GENERATE|  Achieved consistency in connectivity generation.
 Charge Checking ::CSBR
 Charge Checking ::PBBR
 Charge Checking ::BRBR
 Charge Checking ::CSPB
 Charge Checking ::PBPB
 Charge Checking ::BRPB
 Charge Checking ::CSCS
 Charge Checking ::PBCS
 Charge Checking ::BRCS
 CHARGE_INFO| Total Charge of the Classical System:                     0.000000
 Matching kinds for MM_RADIUS :: 'BR' with 'BR'
 Matching kinds for MM_RADIUS :: 'BR' with 'CS'
 Matching kinds for MM_RADIUS :: 'BR' with 'PB'
 Matching kinds for MM_RADIUS :: 'PB' with 'BR'
 Matching kinds for MM_RADIUS :: 'PB' with 'CS'
 Matching kinds for MM_RADIUS :: 'PB' with 'PB'
 Matching kinds for MM_RADIUS :: 'CS' with 'BR'
 Matching kinds for MM_RADIUS :: 'CS' with 'CS'
 Matching kinds for MM_RADIUS :: 'CS' with 'PB'
 Total number of particles with a shell ::            0

 FORCEFIELD| WARNING: A non Critical ForceField parameter is missing! CP2K GOES!
 FORCEFIELD| Non critical parameters are:Urey-Bradley,Torsions,Impropers, Opbends and 1-4
 FORCEFIELD| All missing parameters will not contribute to the potential energy!

 FORCEFIELD| Missing Spline_Bond_Env   (  BR,  BR)






 SPLINE_INFO| Generating 6 splines for NONBONDED14 interactions
              Due to 3 different atomic kinds
  ...1  ...2  ...3  ...4  ...5  ...6
 SPLINE_INFO| Number of unique splines computed:            1
 SPLINE_INFO| Done
     TESTING BRBR with CSCS
     TESTING BRBR with CSPB
     TESTING BRBR with BRPB
     TESTING BRBR with BRCS
     TESTING BRBR with BRBR
     FOUND BR BR
     TESTING BRBR with PBPB
     TESTING BRPB with CSCS
     TESTING BRPB with CSPB
     TESTING BRPB with BRPB
     FOUND BR PB
     TESTING BRPB with BRCS
     TESTING BRPB with BRBR
     TESTING BRPB with PBPB
     TESTING BRCS with CSCS
     TESTING BRCS with CSPB
     TESTING BRCS with BRPB
     TESTING BRCS with BRCS
     FOUND BR CS
     TESTING BRCS with BRBR
     TESTING BRCS with PBPB
     TESTING PBPB with CSCS
     TESTING PBPB with CSPB
     TESTING PBPB with BRPB
     TESTING PBPB with BRCS
     TESTING PBPB with BRBR
     TESTING PBPB with PBPB
     FOUND PB PB
     TESTING PBCS with CSCS
     TESTING PBCS with CSPB
     FOUND PB CS
     TESTING PBCS with BRPB
     TESTING PBCS with BRCS
     TESTING PBCS with BRBR
     TESTING PBCS with PBPB
     TESTING CSCS with CSCS
     FOUND CS CS
     TESTING CSCS with CSPB
     TESTING CSCS with BRPB
     TESTING CSCS with BRCS
     TESTING CSCS with BRBR
     TESTING CSCS with PBPB

 SPLINE_INFO| Generating 6 splines for NONBONDED interactions
              Due to 3 different atomic kinds
  ...1  ...2  ...3  ...4  ...5  ...6
 SPLINE_INFO| Number of unique splines computed:            6
 SPLINE_INFO| Done
       atom            1  Br charge =  -0.20000000000000001
     Mol Kind Br1 charge =  -0.20000000000000001
       atom            1  Br charge =  -0.20000000000000001
     Mol Kind Br2 charge =  -0.20000000000000001
       atom            1  Br charge =  -0.20000000000000001
     Mol Kind Br3 charge =  -0.20000000000000001
       atom            1  Br charge =  -0.20000000000000001
     Mol Kind Br4 charge =  -0.20000000000000001
       atom            1  Br charge =  -0.20000000000000001
     Mol Kind Br5 charge =  -0.20000000000000001
       atom            1  Br charge =  -0.20000000000000001
     Mol Kind Br6 charge =  -0.20000000000000001
       atom            1  Br charge =  -0.20000000000000001
     Mol Kind Br7 charge =  -0.20000000000000001
       atom            1  Br charge =  -0.20000000000000001
     Mol Kind Br8 charge =  -0.20000000000000001
       atom            1  Br charge =  -0.20000000000000001
     Mol Kind Br9 charge =  -0.20000000000000001
       atom            1  Br charge =  -0.20000000000000001
     Mol Kind Br10 charge =  -0.20000000000000001
       atom            1  Br charge =  -0.20000000000000001
     Mol Kind Br11 charge =  -0.20000000000000001
       atom            1  Br charge =  -0.20000000000000001
     Mol Kind Br12 charge =  -0.20000000000000001
       atom            1  Br charge =  -0.20000000000000001
     Mol Kind Br13 charge =  -0.20000000000000001
       atom            1  Br charge =  -0.20000000000000001
     Mol Kind Br14 charge =  -0.20000000000000001
       atom            1  Br charge =  -0.20000000000000001
     Mol Kind Br15 charge =  -0.20000000000000001
       atom            1  Br charge =  -0.20000000000000001
     Mol Kind Br16 charge =  -0.20000000000000001
       atom            1  Br charge =  -0.20000000000000001
     Mol Kind Br17 charge =  -0.20000000000000001
       atom            1  Br charge =  -0.20000000000000001
     Mol Kind Br18 charge =  -0.20000000000000001
       atom            1  Br charge =  -0.20000000000000001
     Mol Kind Br19 charge =  -0.20000000000000001
       atom            1  Br charge =  -0.20000000000000001
     Mol Kind Br20 charge =  -0.20000000000000001
       atom            1  Pb charge =   0.40000000000000002
     Mol Kind Pb21 charge =   0.40000000000000002
       atom            1  Pb charge =   0.40000000000000002
     Mol Kind Pb22 charge =   0.40000000000000002
       atom            1  Pb charge =   0.40000000000000002
     Mol Kind Pb23 charge =   0.40000000000000002
       atom            1  Pb charge =   0.40000000000000002
     Mol Kind Pb24 charge =   0.40000000000000002
       atom            1  Pb charge =   0.40000000000000002
     Mol Kind Pb25 charge =   0.40000000000000002
       atom            1  Pb charge =   0.40000000000000002
     Mol Kind Pb26 charge =   0.40000000000000002
       atom            1  Pb charge =   0.40000000000000002
     Mol Kind Pb27 charge =   0.40000000000000002
       atom            1  Pb charge =   0.40000000000000002
     Mol Kind Pb28 charge =   0.40000000000000002
       atom            1  Pb charge =   0.40000000000000002
     Mol Kind Pb29 charge =   0.40000000000000002
       atom            1  Pb charge =   0.40000000000000002
     Mol Kind Pb30 charge =   0.40000000000000002
       atom            1  Pb charge =   0.40000000000000002
     Mol Kind Pb31 charge =   0.40000000000000002
       atom            1  Pb charge =   0.40000000000000002
     Mol Kind Pb32 charge =   0.40000000000000002
       atom            1  Pb charge =   0.40000000000000002
     Mol Kind Pb33 charge =   0.40000000000000002
       atom            1  Pb charge =   0.40000000000000002
     Mol Kind Pb34 charge =   0.40000000000000002
       atom            1  Pb charge =   0.40000000000000002
     Mol Kind Pb35 charge =   0.40000000000000002
       atom            1  Pb charge =   0.40000000000000002
     Mol Kind Pb36 charge =   0.40000000000000002
       atom            1  Pb charge =   0.40000000000000002
     Mol Kind Pb37 charge =   0.40000000000000002
       atom            1  Pb charge =   0.40000000000000002
     Mol Kind Pb38 charge =   0.40000000000000002
       atom            1  Pb charge =   0.40000000000000002
     Mol Kind Pb39 charge =   0.40000000000000002
       atom            1  Pb charge =   0.40000000000000002
     Mol Kind Pb40 charge =   0.40000000000000002
       atom            1  Pb charge =   0.40000000000000002
     Mol Kind Pb41 charge =   0.40000000000000002
       atom            1  Pb charge =   0.40000000000000002
     Mol Kind Pb42 charge =   0.40000000000000002
       atom            1  Pb charge =   0.40000000000000002
     Mol Kind Pb43 charge =   0.40000000000000002
       atom            1  Pb charge =   0.40000000000000002
     Mol Kind Pb44 charge =   0.40000000000000002
       atom            1  Pb charge =   0.40000000000000002
     Mol Kind Pb45 charge =   0.40000000000000002
       atom            1  Pb charge =   0.40000000000000002
     Mol Kind Pb46 charge =   0.40000000000000002
       atom            1  Pb charge =   0.40000000000000002
     Mol Kind Pb47 charge =   0.40000000000000002
       atom            1  Pb charge =   0.40000000000000002
     Mol Kind Pb48 charge =   0.40000000000000002
       atom            1  Pb charge =   0.40000000000000002
     Mol Kind Pb49 charge =   0.40000000000000002
       atom            1  Pb charge =   0.40000000000000002
     Mol Kind Pb50 charge =   0.40000000000000002
       atom            1  Pb charge =   0.40000000000000002
     Mol Kind Pb51 charge =   0.40000000000000002
       atom            1  Pb charge =   0.40000000000000002
     Mol Kind Pb52 charge =   0.40000000000000002
       atom            1  Pb charge =   0.40000000000000002
     Mol Kind Pb53 charge =   0.40000000000000002
       atom            1  Pb charge =   0.40000000000000002
     Mol Kind Pb54 charge =   0.40000000000000002
       atom            1  Pb charge =   0.40000000000000002
     Mol Kind Pb55 charge =   0.40000000000000002
       atom            1  Pb charge =   0.40000000000000002
     Mol Kind Pb56 charge =   0.40000000000000002
       atom            1  Pb charge =   0.40000000000000002
     Mol Kind Pb57 charge =   0.40000000000000002
       atom            1  Pb charge =   0.40000000000000002
     Mol Kind Pb58 charge =   0.40000000000000002
       atom            1  Pb charge =   0.40000000000000002
     Mol Kind Pb59 charge =   0.40000000000000002
       atom            1  Pb charge =   0.40000000000000002
     Mol Kind Pb60 charge =   0.40000000000000002
       atom            1  Pb charge =   0.40000000000000002
     Mol Kind Pb61 charge =   0.40000000000000002
       atom            1  Pb charge =   0.40000000000000002
     Mol Kind Pb62 charge =   0.40000000000000002
       atom            1  Pb charge =   0.40000000000000002
     Mol Kind Pb63 charge =   0.40000000000000002
       atom            1  Pb charge =   0.40000000000000002
     Mol Kind Pb64 charge =   0.40000000000000002
       atom            1  Pb charge =   0.40000000000000002
     Mol Kind Pb65 charge =   0.40000000000000002
       atom            1  Pb charge =   0.40000000000000002
     Mol Kind Pb66 charge =   0.40000000000000002
       atom            1  Pb charge =   0.40000000000000002
     Mol Kind Pb67 charge =   0.40000000000000002
       atom            1  Pb charge =   0.40000000000000002
     Mol Kind Pb68 charge =   0.40000000000000002
       atom            1  Pb charge =   0.40000000000000002
     Mol Kind Pb69 charge =   0.40000000000000002
       atom            1  Pb charge =   0.40000000000000002
     Mol Kind Pb70 charge =   0.40000000000000002
       atom            1  Pb charge =   0.40000000000000002
     Mol Kind Pb71 charge =   0.40000000000000002
       atom            1  Pb charge =   0.40000000000000002
     Mol Kind Pb72 charge =   0.40000000000000002
       atom            1  Pb charge =   0.40000000000000002
     Mol Kind Pb73 charge =   0.40000000000000002
       atom            1  Pb charge =   0.40000000000000002
     Mol Kind Pb74 charge =   0.40000000000000002
       atom            1  Pb charge =   0.40000000000000002
     Mol Kind Pb75 charge =   0.40000000000000002
       atom            1  Pb charge =   0.40000000000000002
     Mol Kind Pb76 charge =   0.40000000000000002
       atom            1  Pb charge =   0.40000000000000002
     Mol Kind Pb77 charge =   0.40000000000000002
       atom            1  Pb charge =   0.40000000000000002
     Mol Kind Pb78 charge =   0.40000000000000002
       atom            1  Pb charge =   0.40000000000000002
     Mol Kind Pb79 charge =   0.40000000000000002
       atom            1  Pb charge =   0.40000000000000002
     Mol Kind Pb80 charge =   0.40000000000000002
       atom            1  Pb charge =   0.40000000000000002
     Mol Kind Pb81 charge =   0.40000000000000002
       atom            1  Pb charge =   0.40000000000000002
     Mol Kind Pb82 charge =   0.40000000000000002
       atom            1  Pb charge =   0.40000000000000002
     Mol Kind Pb83 charge =   0.40000000000000002
       atom            1  Pb charge =   0.40000000000000002
     Mol Kind Pb84 charge =   0.40000000000000002
       atom            1  Pb charge =   0.40000000000000002
     Mol Kind Pb85 charge =   0.40000000000000002
       atom            1  Pb charge =   0.40000000000000002
     Mol Kind Pb86 charge =   0.40000000000000002
       atom            1  Pb charge =   0.40000000000000002
     Mol Kind Pb87 charge =   0.40000000000000002
       atom            1  Pb charge =   0.40000000000000002
     Mol Kind Pb88 charge =   0.40000000000000002
       atom            1  Pb charge =   0.40000000000000002
     Mol Kind Pb89 charge =   0.40000000000000002
       atom            1  Pb charge =   0.40000000000000002
     Mol Kind Pb90 charge =   0.40000000000000002
       atom            1  Pb charge =   0.40000000000000002
     Mol Kind Pb91 charge =   0.40000000000000002
       atom            1  Pb charge =   0.40000000000000002
     Mol Kind Pb92 charge =   0.40000000000000002
       atom            1  Pb charge =   0.40000000000000002
     Mol Kind Pb93 charge =   0.40000000000000002
       atom            1  Pb charge =   0.40000000000000002
     Mol Kind Pb94 charge =   0.40000000000000002
       atom            1  Pb charge =   0.40000000000000002
     Mol Kind Pb95 charge =   0.40000000000000002
       atom            1  Pb charge =   0.40000000000000002
     Mol Kind Pb96 charge =   0.40000000000000002
       atom            1  Pb charge =   0.40000000000000002
     Mol Kind Pb97 charge =   0.40000000000000002
       atom            1  Pb charge =   0.40000000000000002
     Mol Kind Pb98 charge =   0.40000000000000002
       atom            1  Pb charge =   0.40000000000000002
     Mol Kind Pb99 charge =   0.40000000000000002
       atom            1  Pb charge =   0.40000000000000002
     Mol Kind Pb100 charge =   0.40000000000000002
       atom            1  Pb charge =   0.40000000000000002
     Mol Kind Pb101 charge =   0.40000000000000002
       atom            1  Pb charge =   0.40000000000000002
     Mol Kind Pb102 charge =   0.40000000000000002
       atom            1  Pb charge =   0.40000000000000002
     Mol Kind Pb103 charge =   0.40000000000000002
       atom            1  Pb charge =   0.40000000000000002
     Mol Kind Pb104 charge =   0.40000000000000002
       atom            1  Pb charge =   0.40000000000000002
     Mol Kind Pb105 charge =   0.40000000000000002
       atom            1  Pb charge =   0.40000000000000002
     Mol Kind Pb106 charge =   0.40000000000000002
       atom            1  Pb charge =   0.40000000000000002
     Mol Kind Pb107 charge =   0.40000000000000002
       atom            1  Pb charge =   0.40000000000000002
     Mol Kind Pb108 charge =   0.40000000000000002
       atom            1  Pb charge =   0.40000000000000002
     Mol Kind Pb109 charge =   0.40000000000000002
       atom            1  Pb charge =   0.40000000000000002
     Mol Kind Pb110 charge =   0.40000000000000002
       atom            1  Pb charge =   0.40000000000000002
     Mol Kind Pb111 charge =   0.40000000000000002
       atom            1  Pb charge =   0.40000000000000002
     Mol Kind Pb112 charge =   0.40000000000000002
       atom            1  Pb charge =   0.40000000000000002
     Mol Kind Pb113 charge =   0.40000000000000002
       atom            1  Pb charge =   0.40000000000000002
     Mol Kind Pb114 charge =   0.40000000000000002
       atom            1  Pb charge =   0.40000000000000002
     Mol Kind Pb115 charge =   0.40000000000000002
       atom            1  Pb charge =   0.40000000000000002
     Mol Kind Pb116 charge =   0.40000000000000002
       atom            1  Pb charge =   0.40000000000000002
     Mol Kind Pb117 charge =   0.40000000000000002
       atom            1  Pb charge =   0.40000000000000002
     Mol Kind Pb118 charge =   0.40000000000000002
       atom            1  Pb charge =   0.40000000000000002
     Mol Kind Pb119 charge =   0.40000000000000002
       atom            1  Pb charge =   0.40000000000000002
     Mol Kind Pb120 charge =   0.40000000000000002
       atom            1  Pb charge =   0.40000000000000002
     Mol Kind Pb121 charge =   0.40000000000000002
       atom            1  Pb charge =   0.40000000000000002
     Mol Kind Pb122 charge =   0.40000000000000002
       atom            1  Pb charge =   0.40000000000000002
     Mol Kind Pb123 charge =   0.40000000000000002
       atom            1  Pb charge =   0.40000000000000002
     Mol Kind Pb124 charge =   0.40000000000000002
       atom            1  Pb charge =   0.40000000000000002
     Mol Kind Pb125 charge =   0.40000000000000002
       atom            1  Pb charge =   0.40000000000000002
     Mol Kind Pb126 charge =   0.40000000000000002
       atom            1  Pb charge =   0.40000000000000002
     Mol Kind Pb127 charge =   0.40000000000000002
       atom            1  Pb charge =   0.40000000000000002
     Mol Kind Pb128 charge =   0.40000000000000002
       atom            1  Cs charge =   0.20000000000000001
     Mol Kind Cs129 charge =   0.20000000000000001
       atom            1  Cs charge =   0.20000000000000001
     Mol Kind Cs130 charge =   0.20000000000000001
       atom            1  Cs charge =   0.20000000000000001
     Mol Kind Cs131 charge =   0.20000000000000001
       atom            1  Cs charge =   0.20000000000000001
     Mol Kind Cs132 charge =   0.20000000000000001
       atom            1  Cs charge =   0.20000000000000001
     Mol Kind Cs133 charge =   0.20000000000000001
       atom            1  Cs charge =   0.20000000000000001
     Mol Kind Cs134 charge =   0.20000000000000001
       atom            1  Cs charge =   0.20000000000000001
     Mol Kind Cs135 charge =   0.20000000000000001
       atom            1  Cs charge =   0.20000000000000001
     Mol Kind Cs136 charge =   0.20000000000000001
       atom            1  Cs charge =   0.20000000000000001
     Mol Kind Cs137 charge =   0.20000000000000001
       atom            1  Cs charge =   0.20000000000000001
     Mol Kind Cs138 charge =   0.20000000000000001
       atom            1  Cs charge =   0.20000000000000001
     Mol Kind Cs139 charge =   0.20000000000000001
       atom            1  Cs charge =   0.20000000000000001
     Mol Kind Cs140 charge =   0.20000000000000001
       atom            1  Cs charge =   0.20000000000000001
     Mol Kind Cs141 charge =   0.20000000000000001
       atom            1  Cs charge =   0.20000000000000001
     Mol Kind Cs142 charge =   0.20000000000000001
       atom            1  Cs charge =   0.20000000000000001
     Mol Kind Cs143 charge =   0.20000000000000001
       atom            1  Cs charge =   0.20000000000000001
     Mol Kind Cs144 charge =   0.20000000000000001
       atom            1  Cs charge =   0.20000000000000001
     Mol Kind Cs145 charge =   0.20000000000000001
       atom            1  Cs charge =   0.20000000000000001
     Mol Kind Cs146 charge =   0.20000000000000001
       atom            1  Cs charge =   0.20000000000000001
     Mol Kind Cs147 charge =   0.20000000000000001
       atom            1  Cs charge =   0.20000000000000001
     Mol Kind Cs148 charge =   0.20000000000000001
       atom            1  Cs charge =   0.20000000000000001
     Mol Kind Cs149 charge =   0.20000000000000001
       atom            1  Cs charge =   0.20000000000000001
     Mol Kind Cs150 charge =   0.20000000000000001
       atom            1  Cs charge =   0.20000000000000001
     Mol Kind Cs151 charge =   0.20000000000000001
       atom            1  Cs charge =   0.20000000000000001
     Mol Kind Cs152 charge =   0.20000000000000001
       atom            1  Cs charge =   0.20000000000000001
     Mol Kind Cs153 charge =   0.20000000000000001
       atom            1  Cs charge =   0.20000000000000001
     Mol Kind Cs154 charge =   0.20000000000000001
       atom            1  Cs charge =   0.20000000000000001
     Mol Kind Cs155 charge =   0.20000000000000001
       atom            1  Cs charge =   0.20000000000000001
     Mol Kind Cs156 charge =   0.20000000000000001
       atom            1  Cs charge =   0.20000000000000001
     Mol Kind Cs157 charge =   0.20000000000000001
       atom            1  Cs charge =   0.20000000000000001
     Mol Kind Cs158 charge =   0.20000000000000001
       atom            1  Cs charge =   0.20000000000000001
     Mol Kind Cs159 charge =   0.20000000000000001
       atom            1  Cs charge =   0.20000000000000001
     Mol Kind Cs160 charge =   0.20000000000000001
       atom            1  Cs charge =   0.20000000000000001
     Mol Kind Cs161 charge =   0.20000000000000001
       atom            1  Cs charge =   0.20000000000000001
     Mol Kind Cs162 charge =   0.20000000000000001
       atom            1  Cs charge =   0.20000000000000001
     Mol Kind Cs163 charge =   0.20000000000000001
       atom            1  Cs charge =   0.20000000000000001
     Mol Kind Cs164 charge =   0.20000000000000001
       atom            1  Cs charge =   0.20000000000000001
     Mol Kind Cs165 charge =   0.20000000000000001
       atom            1  Cs charge =   0.20000000000000001
     Mol Kind Cs166 charge =   0.20000000000000001
       atom            1  Cs charge =   0.20000000000000001
     Mol Kind Cs167 charge =   0.20000000000000001
       atom            1  Cs charge =   0.20000000000000001
     Mol Kind Cs168 charge =   0.20000000000000001
       atom            1  Cs charge =   0.20000000000000001
     Mol Kind Cs169 charge =   0.20000000000000001
       atom            1  Cs charge =   0.20000000000000001
     Mol Kind Cs170 charge =   0.20000000000000001
       atom            1  Cs charge =   0.20000000000000001
     Mol Kind Cs171 charge =   0.20000000000000001
       atom            1  Cs charge =   0.20000000000000001
     Mol Kind Cs172 charge =   0.20000000000000001
       atom            1  Cs charge =   0.20000000000000001
     Mol Kind Cs173 charge =   0.20000000000000001
       atom            1  Cs charge =   0.20000000000000001
     Mol Kind Cs174 charge =   0.20000000000000001
       atom            1  Cs charge =   0.20000000000000001
     Mol Kind Cs175 charge =   0.20000000000000001
       atom            1  Cs charge =   0.20000000000000001
     Mol Kind Cs176 charge =   0.20000000000000001
       atom            1  Cs charge =   0.20000000000000001
     Mol Kind Cs177 charge =   0.20000000000000001
       atom            1  Cs charge =   0.20000000000000001
     Mol Kind Cs178 charge =   0.20000000000000001
       atom            1  Cs charge =   0.20000000000000001
     Mol Kind Cs179 charge =   0.20000000000000001
       atom            1  Cs charge =   0.20000000000000001
     Mol Kind Cs180 charge =   0.20000000000000001
       atom            1  Cs charge =   0.20000000000000001
     Mol Kind Cs181 charge =   0.20000000000000001
       atom            1  Cs charge =   0.20000000000000001
     Mol Kind Cs182 charge =   0.20000000000000001
       atom            1  Cs charge =   0.20000000000000001
     Mol Kind Cs183 charge =   0.20000000000000001
       atom            1  Cs charge =   0.20000000000000001
     Mol Kind Cs184 charge =   0.20000000000000001
       atom            1  Cs charge =   0.20000000000000001
     Mol Kind Cs185 charge =   0.20000000000000001
       atom            1  Cs charge =   0.20000000000000001
     Mol Kind Cs186 charge =   0.20000000000000001
       atom            1  Cs charge =   0.20000000000000001
     Mol Kind Cs187 charge =   0.20000000000000001
       atom            1  Cs charge =   0.20000000000000001
     Mol Kind Cs188 charge =   0.20000000000000001
       atom            1  Cs charge =   0.20000000000000001
     Mol Kind Cs189 charge =   0.20000000000000001
       atom            1  Cs charge =   0.20000000000000001
     Mol Kind Cs190 charge =   0.20000000000000001
       atom            1  Cs charge =   0.20000000000000001
     Mol Kind Cs191 charge =   0.20000000000000001
       atom            1  Cs charge =   0.20000000000000001
     Mol Kind Cs192 charge =   0.20000000000000001
       atom            1  Cs charge =   0.20000000000000001
     Mol Kind Cs193 charge =   0.20000000000000001
       atom            1  Cs charge =   0.20000000000000001
     Mol Kind Cs194 charge =   0.20000000000000001
       atom            1  Cs charge =   0.20000000000000001
     Mol Kind Cs195 charge =   0.20000000000000001
       atom            1  Cs charge =   0.20000000000000001
     Mol Kind Cs196 charge =   0.20000000000000001
       atom            1  Cs charge =   0.20000000000000001
     Mol Kind Cs197 charge =   0.20000000000000001
       atom            1  Cs charge =   0.20000000000000001
     Mol Kind Cs198 charge =   0.20000000000000001
       atom            1  Cs charge =   0.20000000000000001
     Mol Kind Cs199 charge =   0.20000000000000001
       atom            1  Cs charge =   0.20000000000000001
     Mol Kind Cs200 charge =   0.20000000000000001
       atom            1  Cs charge =   0.20000000000000001
     Mol Kind Cs201 charge =   0.20000000000000001
       atom            1  Cs charge =   0.20000000000000001
     Mol Kind Cs202 charge =   0.20000000000000001
       atom            1  Cs charge =   0.20000000000000001
     Mol Kind Cs203 charge =   0.20000000000000001
       atom            1  Cs charge =   0.20000000000000001
     Mol Kind Cs204 charge =   0.20000000000000001
       atom            1  Cs charge =   0.20000000000000001
     Mol Kind Cs205 charge =   0.20000000000000001
       atom            1  Cs charge =   0.20000000000000001
     Mol Kind Cs206 charge =   0.20000000000000001
       atom            1  Cs charge =   0.20000000000000001
     Mol Kind Cs207 charge =   0.20000000000000001
       atom            1  Cs charge =   0.20000000000000001
     Mol Kind Cs208 charge =   0.20000000000000001
       atom            1  Cs charge =   0.20000000000000001
     Mol Kind Cs209 charge =   0.20000000000000001
       atom            1  Cs charge =   0.20000000000000001
     Mol Kind Cs210 charge =   0.20000000000000001
       atom            1  Cs charge =   0.20000000000000001
     Mol Kind Cs211 charge =   0.20000000000000001
       atom            1  Cs charge =   0.20000000000000001
     Mol Kind Cs212 charge =   0.20000000000000001
       atom            1  Cs charge =   0.20000000000000001
     Mol Kind Cs213 charge =   0.20000000000000001
       atom            1  Cs charge =   0.20000000000000001
     Mol Kind Cs214 charge =   0.20000000000000001
       atom            1  Cs charge =   0.20000000000000001
     Mol Kind Cs215 charge =   0.20000000000000001
       atom            1  Cs charge =   0.20000000000000001
     Mol Kind Cs216 charge =   0.20000000000000001
       atom            1  Cs charge =   0.20000000000000001
     Mol Kind Cs217 charge =   0.20000000000000001
       atom            1  Cs charge =   0.20000000000000001
     Mol Kind Cs218 charge =   0.20000000000000001
       atom            1  Cs charge =   0.20000000000000001
     Mol Kind Cs219 charge =   0.20000000000000001
       atom            1  Cs charge =   0.20000000000000001
     Mol Kind Cs220 charge =   0.20000000000000001
       atom            1  Cs charge =   0.20000000000000001
     Mol Kind Cs221 charge =   0.20000000000000001
       atom            1  Cs charge =   0.20000000000000001
     Mol Kind Cs222 charge =   0.20000000000000001
       atom            1  Cs charge =   0.20000000000000001
     Mol Kind Cs223 charge =   0.20000000000000001
       atom            1  Cs charge =   0.20000000000000001
     Mol Kind Cs224 charge =   0.20000000000000001
       atom            1  Cs charge =   0.20000000000000001
     Mol Kind Cs225 charge =   0.20000000000000001
       atom            1  Cs charge =   0.20000000000000001
     Mol Kind Cs226 charge =   0.20000000000000001
       atom            1  Cs charge =   0.20000000000000001
     Mol Kind Cs227 charge =   0.20000000000000001
       atom            1  Cs charge =   0.20000000000000001
     Mol Kind Cs228 charge =   0.20000000000000001
       atom            1  Cs charge =   0.20000000000000001
     Mol Kind Cs229 charge =   0.20000000000000001
       atom            1  Cs charge =   0.20000000000000001
     Mol Kind Cs230 charge =   0.20000000000000001
       atom            1  Cs charge =   0.20000000000000001
     Mol Kind Cs231 charge =   0.20000000000000001
       atom            1  Cs charge =   0.20000000000000001
     Mol Kind Cs232 charge =   0.20000000000000001
       atom            1  Cs charge =   0.20000000000000001
     Mol Kind Cs233 charge =   0.20000000000000001
       atom            1  Cs charge =   0.20000000000000001
     Mol Kind Cs234 charge =   0.20000000000000001
       atom            1  Cs charge =   0.20000000000000001
     Mol Kind Cs235 charge =   0.20000000000000001
       atom            1  Cs charge =   0.20000000000000001
     Mol Kind Cs236 charge =   0.20000000000000001
       atom            1  Br charge =  -0.20000000000000001
     Mol Kind Br237 charge =  -0.20000000000000001
       atom            1  Br charge =  -0.20000000000000001
     Mol Kind Br238 charge =  -0.20000000000000001
       atom            1  Br charge =  -0.20000000000000001
     Mol Kind Br239 charge =  -0.20000000000000001
       atom            1  Br charge =  -0.20000000000000001
     Mol Kind Br240 charge =  -0.20000000000000001
       atom            1  Br charge =  -0.20000000000000001
     Mol Kind Br241 charge =  -0.20000000000000001
       atom            1  Br charge =  -0.20000000000000001
     Mol Kind Br242 charge =  -0.20000000000000001
       atom            1  Br charge =  -0.20000000000000001
     Mol Kind Br243 charge =  -0.20000000000000001
       atom            1  Br charge =  -0.20000000000000001
     Mol Kind Br244 charge =  -0.20000000000000001
       atom            1  Br charge =  -0.20000000000000001
     Mol Kind Br245 charge =  -0.20000000000000001
       atom            1  Br charge =  -0.20000000000000001
     Mol Kind Br246 charge =  -0.20000000000000001
       atom            1  Br charge =  -0.20000000000000001
     Mol Kind Br247 charge =  -0.20000000000000001
       atom            1  Br charge =  -0.20000000000000001
     Mol Kind Br248 charge =  -0.20000000000000001
       atom            1  Br charge =  -0.20000000000000001
     Mol Kind Br249 charge =  -0.20000000000000001
       atom            1  Br charge =  -0.20000000000000001
     Mol Kind Br250 charge =  -0.20000000000000001
       atom            1  Br charge =  -0.20000000000000001
     Mol Kind Br251 charge =  -0.20000000000000001
       atom            1  Br charge =  -0.20000000000000001
     Mol Kind Br252 charge =  -0.20000000000000001
       atom            1  Br charge =  -0.20000000000000001
     Mol Kind Br253 charge =  -0.20000000000000001
       atom            1  Br charge =  -0.20000000000000001
     Mol Kind Br254 charge =  -0.20000000000000001
       atom            1  Br charge =  -0.20000000000000001
     Mol Kind Br255 charge =  -0.20000000000000001
       atom            1  Br charge =  -0.20000000000000001
     Mol Kind Br256 charge =  -0.20000000000000001
       atom            1  Br charge =  -0.20000000000000001
     Mol Kind Br257 charge =  -0.20000000000000001
       atom            1  Br charge =  -0.20000000000000001
     Mol Kind Br258 charge =  -0.20000000000000001
       atom            1  Br charge =  -0.20000000000000001
     Mol Kind Br259 charge =  -0.20000000000000001
       atom            1  Br charge =  -0.20000000000000001
     Mol Kind Br260 charge =  -0.20000000000000001
       atom            1  Br charge =  -0.20000000000000001
     Mol Kind Br261 charge =  -0.20000000000000001
       atom            1  Br charge =  -0.20000000000000001
     Mol Kind Br262 charge =  -0.20000000000000001
       atom            1  Br charge =  -0.20000000000000001
     Mol Kind Br263 charge =  -0.20000000000000001
       atom            1  Br charge =  -0.20000000000000001
     Mol Kind Br264 charge =  -0.20000000000000001
       atom            1  Br charge =  -0.20000000000000001
     Mol Kind Br265 charge =  -0.20000000000000001
       atom            1  Br charge =  -0.20000000000000001
     Mol Kind Br266 charge =  -0.20000000000000001
       atom            1  Br charge =  -0.20000000000000001
     Mol Kind Br267 charge =  -0.20000000000000001
       atom            1  Br charge =  -0.20000000000000001
     Mol Kind Br268 charge =  -0.20000000000000001
       atom            1  Br charge =  -0.20000000000000001
     Mol Kind Br269 charge =  -0.20000000000000001
       atom            1  Br charge =  -0.20000000000000001
     Mol Kind Br270 charge =  -0.20000000000000001
       atom            1  Br charge =  -0.20000000000000001
     Mol Kind Br271 charge =  -0.20000000000000001
       atom            1  Br charge =  -0.20000000000000001
     Mol Kind Br272 charge =  -0.20000000000000001
       atom            1  Br charge =  -0.20000000000000001
     Mol Kind Br273 charge =  -0.20000000000000001
       atom            1  Br charge =  -0.20000000000000001
     Mol Kind Br274 charge =  -0.20000000000000001
       atom            1  Br charge =  -0.20000000000000001
     Mol Kind Br275 charge =  -0.20000000000000001
       atom            1  Br charge =  -0.20000000000000001
     Mol Kind Br276 charge =  -0.20000000000000001
       atom            1  Br charge =  -0.20000000000000001
     Mol Kind Br277 charge =  -0.20000000000000001
       atom            1  Br charge =  -0.20000000000000001
     Mol Kind Br278 charge =  -0.20000000000000001
       atom            1  Br charge =  -0.20000000000000001
     Mol Kind Br279 charge =  -0.20000000000000001
       atom            1  Br charge =  -0.20000000000000001
     Mol Kind Br280 charge =  -0.20000000000000001
       atom            1  Br charge =  -0.20000000000000001
     Mol Kind Br281 charge =  -0.20000000000000001
       atom            1  Br charge =  -0.20000000000000001
     Mol Kind Br282 charge =  -0.20000000000000001
       atom            1  Br charge =  -0.20000000000000001
     Mol Kind Br283 charge =  -0.20000000000000001
       atom            1  Br charge =  -0.20000000000000001
     Mol Kind Br284 charge =  -0.20000000000000001
       atom            1  Br charge =  -0.20000000000000001
     Mol Kind Br285 charge =  -0.20000000000000001
       atom            1  Br charge =  -0.20000000000000001
     Mol Kind Br286 charge =  -0.20000000000000001
       atom            1  Br charge =  -0.20000000000000001
     Mol Kind Br287 charge =  -0.20000000000000001
       atom            1  Br charge =  -0.20000000000000001
     Mol Kind Br288 charge =  -0.20000000000000001
       atom            1  Br charge =  -0.20000000000000001
     Mol Kind Br289 charge =  -0.20000000000000001
       atom            1  Br charge =  -0.20000000000000001
     Mol Kind Br290 charge =  -0.20000000000000001
       atom            1  Br charge =  -0.20000000000000001
     Mol Kind Br291 charge =  -0.20000000000000001
       atom            1  Br charge =  -0.20000000000000001
     Mol Kind Br292 charge =  -0.20000000000000001
       atom            1  Br charge =  -0.20000000000000001
     Mol Kind Br293 charge =  -0.20000000000000001
       atom            1  Br charge =  -0.20000000000000001
     Mol Kind Br294 charge =  -0.20000000000000001
       atom            1  Br charge =  -0.20000000000000001
     Mol Kind Br295 charge =  -0.20000000000000001
       atom            1  Br charge =  -0.20000000000000001
     Mol Kind Br296 charge =  -0.20000000000000001
       atom            1  Br charge =  -0.20000000000000001
     Mol Kind Br297 charge =  -0.20000000000000001
       atom            1  Br charge =  -0.20000000000000001
     Mol Kind Br298 charge =  -0.20000000000000001
       atom            1  Br charge =  -0.20000000000000001
     Mol Kind Br299 charge =  -0.20000000000000001
       atom            1  Br charge =  -0.20000000000000001
     Mol Kind Br300 charge =  -0.20000000000000001
       atom            1  Br charge =  -0.20000000000000001
     Mol Kind Br301 charge =  -0.20000000000000001
       atom            1  Br charge =  -0.20000000000000001
     Mol Kind Br302 charge =  -0.20000000000000001
       atom            1  Br charge =  -0.20000000000000001
     Mol Kind Br303 charge =  -0.20000000000000001
       atom            1  Br charge =  -0.20000000000000001
     Mol Kind Br304 charge =  -0.20000000000000001
       atom            1  Br charge =  -0.20000000000000001
     Mol Kind Br305 charge =  -0.20000000000000001
       atom            1  Br charge =  -0.20000000000000001
     Mol Kind Br306 charge =  -0.20000000000000001
       atom            1  Br charge =  -0.20000000000000001
     Mol Kind Br307 charge =  -0.20000000000000001
       atom            1  Br charge =  -0.20000000000000001
     Mol Kind Br308 charge =  -0.20000000000000001
       atom            1  Br charge =  -0.20000000000000001
     Mol Kind Br309 charge =  -0.20000000000000001
       atom            1  Br charge =  -0.20000000000000001
     Mol Kind Br310 charge =  -0.20000000000000001
       atom            1  Br charge =  -0.20000000000000001
     Mol Kind Br311 charge =  -0.20000000000000001
       atom            1  Br charge =  -0.20000000000000001
     Mol Kind Br312 charge =  -0.20000000000000001
       atom            1  Br charge =  -0.20000000000000001
     Mol Kind Br313 charge =  -0.20000000000000001
       atom            1  Br charge =  -0.20000000000000001
     Mol Kind Br314 charge =  -0.20000000000000001
       atom            1  Br charge =  -0.20000000000000001
     Mol Kind Br315 charge =  -0.20000000000000001
       atom            1  Br charge =  -0.20000000000000001
     Mol Kind Br316 charge =  -0.20000000000000001
       atom            1  Br charge =  -0.20000000000000001
     Mol Kind Br317 charge =  -0.20000000000000001
       atom            1  Br charge =  -0.20000000000000001
     Mol Kind Br318 charge =  -0.20000000000000001
       atom            1  Br charge =  -0.20000000000000001
     Mol Kind Br319 charge =  -0.20000000000000001
       atom            1  Br charge =  -0.20000000000000001
     Mol Kind Br320 charge =  -0.20000000000000001
       atom            1  Br charge =  -0.20000000000000001
     Mol Kind Br321 charge =  -0.20000000000000001
       atom            1  Br charge =  -0.20000000000000001
     Mol Kind Br322 charge =  -0.20000000000000001
       atom            1  Br charge =  -0.20000000000000001
     Mol Kind Br323 charge =  -0.20000000000000001
       atom            1  Br charge =  -0.20000000000000001
     Mol Kind Br324 charge =  -0.20000000000000001
       atom            1  Br charge =  -0.20000000000000001
     Mol Kind Br325 charge =  -0.20000000000000001
       atom            1  Br charge =  -0.20000000000000001
     Mol Kind Br326 charge =  -0.20000000000000001
       atom            1  Br charge =  -0.20000000000000001
     Mol Kind Br327 charge =  -0.20000000000000001
       atom            1  Br charge =  -0.20000000000000001
     Mol Kind Br328 charge =  -0.20000000000000001
       atom            1  Br charge =  -0.20000000000000001
     Mol Kind Br329 charge =  -0.20000000000000001
       atom            1  Br charge =  -0.20000000000000001
     Mol Kind Br330 charge =  -0.20000000000000001
       atom            1  Br charge =  -0.20000000000000001
     Mol Kind Br331 charge =  -0.20000000000000001
       atom            1  Br charge =  -0.20000000000000001
     Mol Kind Br332 charge =  -0.20000000000000001
       atom            1  Br charge =  -0.20000000000000001
     Mol Kind Br333 charge =  -0.20000000000000001
       atom            1  Br charge =  -0.20000000000000001
     Mol Kind Br334 charge =  -0.20000000000000001
       atom            1  Br charge =  -0.20000000000000001
     Mol Kind Br335 charge =  -0.20000000000000001
       atom            1  Br charge =  -0.20000000000000001
     Mol Kind Br336 charge =  -0.20000000000000001
       atom            1  Br charge =  -0.20000000000000001
     Mol Kind Br337 charge =  -0.20000000000000001
       atom            1  Br charge =  -0.20000000000000001
     Mol Kind Br338 charge =  -0.20000000000000001
       atom            1  Br charge =  -0.20000000000000001
     Mol Kind Br339 charge =  -0.20000000000000001
       atom            1  Br charge =  -0.20000000000000001
     Mol Kind Br340 charge =  -0.20000000000000001
       atom            1  Br charge =  -0.20000000000000001
     Mol Kind Br341 charge =  -0.20000000000000001
       atom            1  Br charge =  -0.20000000000000001
     Mol Kind Br342 charge =  -0.20000000000000001
       atom            1  Br charge =  -0.20000000000000001
     Mol Kind Br343 charge =  -0.20000000000000001
       atom            1  Br charge =  -0.20000000000000001
     Mol Kind Br344 charge =  -0.20000000000000001
       atom            1  Br charge =  -0.20000000000000001
     Mol Kind Br345 charge =  -0.20000000000000001
       atom            1  Br charge =  -0.20000000000000001
     Mol Kind Br346 charge =  -0.20000000000000001
       atom            1  Br charge =  -0.20000000000000001
     Mol Kind Br347 charge =  -0.20000000000000001
       atom            1  Br charge =  -0.20000000000000001
     Mol Kind Br348 charge =  -0.20000000000000001
       atom            1  Br charge =  -0.20000000000000001
     Mol Kind Br349 charge =  -0.20000000000000001
       atom            1  Br charge =  -0.20000000000000001
     Mol Kind Br350 charge =  -0.20000000000000001
       atom            1  Br charge =  -0.20000000000000001
     Mol Kind Br351 charge =  -0.20000000000000001
       atom            1  Br charge =  -0.20000000000000001
     Mol Kind Br352 charge =  -0.20000000000000001
       atom            1  Br charge =  -0.20000000000000001
     Mol Kind Br353 charge =  -0.20000000000000001
       atom            1  Br charge =  -0.20000000000000001
     Mol Kind Br354 charge =  -0.20000000000000001
       atom            1  Br charge =  -0.20000000000000001
     Mol Kind Br355 charge =  -0.20000000000000001
       atom            1  Br charge =  -0.20000000000000001
     Mol Kind Br356 charge =  -0.20000000000000001
       atom            1  Br charge =  -0.20000000000000001
     Mol Kind Br357 charge =  -0.20000000000000001
       atom            1  Br charge =  -0.20000000000000001
     Mol Kind Br358 charge =  -0.20000000000000001
       atom            1  Br charge =  -0.20000000000000001
     Mol Kind Br359 charge =  -0.20000000000000001
       atom            1  Br charge =  -0.20000000000000001
     Mol Kind Br360 charge =  -0.20000000000000001
       atom            1  Br charge =  -0.20000000000000001
     Mol Kind Br361 charge =  -0.20000000000000001
       atom            1  Br charge =  -0.20000000000000001
     Mol Kind Br362 charge =  -0.20000000000000001
       atom            1  Br charge =  -0.20000000000000001
     Mol Kind Br363 charge =  -0.20000000000000001
       atom            1  Br charge =  -0.20000000000000001
     Mol Kind Br364 charge =  -0.20000000000000001
       atom            1  Br charge =  -0.20000000000000001
     Mol Kind Br365 charge =  -0.20000000000000001
       atom            1  Br charge =  -0.20000000000000001
     Mol Kind Br366 charge =  -0.20000000000000001
       atom            1  Br charge =  -0.20000000000000001
     Mol Kind Br367 charge =  -0.20000000000000001
       atom            1  Br charge =  -0.20000000000000001
     Mol Kind Br368 charge =  -0.20000000000000001
       atom            1  Br charge =  -0.20000000000000001
     Mol Kind Br369 charge =  -0.20000000000000001
       atom            1  Br charge =  -0.20000000000000001
     Mol Kind Br370 charge =  -0.20000000000000001
       atom            1  Br charge =  -0.20000000000000001
     Mol Kind Br371 charge =  -0.20000000000000001
       atom            1  Br charge =  -0.20000000000000001
     Mol Kind Br372 charge =  -0.20000000000000001
       atom            1  Br charge =  -0.20000000000000001
     Mol Kind Br373 charge =  -0.20000000000000001
       atom            1  Br charge =  -0.20000000000000001
     Mol Kind Br374 charge =  -0.20000000000000001
       atom            1  Br charge =  -0.20000000000000001
     Mol Kind Br375 charge =  -0.20000000000000001
       atom            1  Br charge =  -0.20000000000000001
     Mol Kind Br376 charge =  -0.20000000000000001
       atom            1  Br charge =  -0.20000000000000001
     Mol Kind Br377 charge =  -0.20000000000000001
       atom            1  Br charge =  -0.20000000000000001
     Mol Kind Br378 charge =  -0.20000000000000001
       atom            1  Br charge =  -0.20000000000000001
     Mol Kind Br379 charge =  -0.20000000000000001
       atom            1  Br charge =  -0.20000000000000001
     Mol Kind Br380 charge =  -0.20000000000000001
       atom            1  Br charge =  -0.20000000000000001
     Mol Kind Br381 charge =  -0.20000000000000001
       atom            1  Br charge =  -0.20000000000000001
     Mol Kind Br382 charge =  -0.20000000000000001
       atom            1  Br charge =  -0.20000000000000001
     Mol Kind Br383 charge =  -0.20000000000000001
       atom            1  Br charge =  -0.20000000000000001
     Mol Kind Br384 charge =  -0.20000000000000001
       atom            1  Br charge =  -0.20000000000000001
     Mol Kind Br385 charge =  -0.20000000000000001
       atom            1  Br charge =  -0.20000000000000001
     Mol Kind Br386 charge =  -0.20000000000000001
       atom            1  Br charge =  -0.20000000000000001
     Mol Kind Br387 charge =  -0.20000000000000001
       atom            1  Br charge =  -0.20000000000000001
     Mol Kind Br388 charge =  -0.20000000000000001
       atom            1  Br charge =  -0.20000000000000001
     Mol Kind Br389 charge =  -0.20000000000000001
       atom            1  Br charge =  -0.20000000000000001
     Mol Kind Br390 charge =  -0.20000000000000001
       atom            1  Br charge =  -0.20000000000000001
     Mol Kind Br391 charge =  -0.20000000000000001
       atom            1  Br charge =  -0.20000000000000001
     Mol Kind Br392 charge =  -0.20000000000000001
       atom            1  Br charge =  -0.20000000000000001
     Mol Kind Br393 charge =  -0.20000000000000001
       atom            1  Br charge =  -0.20000000000000001
     Mol Kind Br394 charge =  -0.20000000000000001
       atom            1  Br charge =  -0.20000000000000001
     Mol Kind Br395 charge =  -0.20000000000000001
       atom            1  Br charge =  -0.20000000000000001
     Mol Kind Br396 charge =  -0.20000000000000001
       atom            1  Br charge =  -0.20000000000000001
     Mol Kind Br397 charge =  -0.20000000000000001
       atom            1  Br charge =  -0.20000000000000001
     Mol Kind Br398 charge =  -0.20000000000000001
       atom            1  Br charge =  -0.20000000000000001
     Mol Kind Br399 charge =  -0.20000000000000001
       atom            1  Br charge =  -0.20000000000000001
     Mol Kind Br400 charge =  -0.20000000000000001
       atom            1  Br charge =  -0.20000000000000001
     Mol Kind Br401 charge =  -0.20000000000000001
       atom            1  Br charge =  -0.20000000000000001
     Mol Kind Br402 charge =  -0.20000000000000001
       atom            1  Br charge =  -0.20000000000000001
     Mol Kind Br403 charge =  -0.20000000000000001
       atom            1  Br charge =  -0.20000000000000001
     Mol Kind Br404 charge =  -0.20000000000000001
       atom            1  Br charge =  -0.20000000000000001
     Mol Kind Br405 charge =  -0.20000000000000001
       atom            1  Br charge =  -0.20000000000000001
     Mol Kind Br406 charge =  -0.20000000000000001
       atom            1  Br charge =  -0.20000000000000001
     Mol Kind Br407 charge =  -0.20000000000000001
       atom            1  Br charge =  -0.20000000000000001
     Mol Kind Br408 charge =  -0.20000000000000001
       atom            1  Br charge =  -0.20000000000000001
     Mol Kind Br409 charge =  -0.20000000000000001
       atom            1  Br charge =  -0.20000000000000001
     Mol Kind Br410 charge =  -0.20000000000000001
       atom            1  Br charge =  -0.20000000000000001
     Mol Kind Br411 charge =  -0.20000000000000001
       atom            1  Br charge =  -0.20000000000000001
     Mol Kind Br412 charge =  -0.20000000000000001
       atom            1  Br charge =  -0.20000000000000001
     Mol Kind Br413 charge =  -0.20000000000000001
       atom            1  Br charge =  -0.20000000000000001
     Mol Kind Br414 charge =  -0.20000000000000001
       atom            1  Br charge =  -0.20000000000000001
     Mol Kind Br415 charge =  -0.20000000000000001
       atom            1  Br charge =  -0.20000000000000001
     Mol Kind Br416 charge =  -0.20000000000000001
       atom            1  Br charge =  -0.20000000000000001
     Mol Kind Br417 charge =  -0.20000000000000001
       atom            1  Br charge =  -0.20000000000000001
     Mol Kind Br418 charge =  -0.20000000000000001
       atom            1  Br charge =  -0.20000000000000001
     Mol Kind Br419 charge =  -0.20000000000000001
       atom            1  Br charge =  -0.20000000000000001
     Mol Kind Br420 charge =  -0.20000000000000001
       atom            1  Br charge =  -0.20000000000000001
     Mol Kind Br421 charge =  -0.20000000000000001
       atom            1  Br charge =  -0.20000000000000001
     Mol Kind Br422 charge =  -0.20000000000000001
       atom            1  Br charge =  -0.20000000000000001
     Mol Kind Br423 charge =  -0.20000000000000001
       atom            1  Br charge =  -0.20000000000000001
     Mol Kind Br424 charge =  -0.20000000000000001
       atom            1  Br charge =  -0.20000000000000001
     Mol Kind Br425 charge =  -0.20000000000000001
       atom            1  Br charge =  -0.20000000000000001
     Mol Kind Br426 charge =  -0.20000000000000001
       atom            1  Br charge =  -0.20000000000000001
     Mol Kind Br427 charge =  -0.20000000000000001
       atom            1  Br charge =  -0.20000000000000001
     Mol Kind Br428 charge =  -0.20000000000000001
       atom            1  Br charge =  -0.20000000000000001
     Mol Kind Br429 charge =  -0.20000000000000001
       atom            1  Br charge =  -0.20000000000000001
     Mol Kind Br430 charge =  -0.20000000000000001
       atom            1  Br charge =  -0.20000000000000001
     Mol Kind Br431 charge =  -0.20000000000000001
       atom            1  Br charge =  -0.20000000000000001
     Mol Kind Br432 charge =  -0.20000000000000001
       atom            1  Br charge =  -0.20000000000000001
     Mol Kind Br433 charge =  -0.20000000000000001
       atom            1  Br charge =  -0.20000000000000001
     Mol Kind Br434 charge =  -0.20000000000000001
       atom            1  Br charge =  -0.20000000000000001
     Mol Kind Br435 charge =  -0.20000000000000001
       atom            1  Br charge =  -0.20000000000000001
     Mol Kind Br436 charge =  -0.20000000000000001
       atom            1  Br charge =  -0.20000000000000001
     Mol Kind Br437 charge =  -0.20000000000000001
       atom            1  Br charge =  -0.20000000000000001
     Mol Kind Br438 charge =  -0.20000000000000001
       atom            1  Br charge =  -0.20000000000000001
     Mol Kind Br439 charge =  -0.20000000000000001
       atom            1  Br charge =  -0.20000000000000001
     Mol Kind Br440 charge =  -0.20000000000000001
       atom            1  Br charge =  -0.20000000000000001
     Mol Kind Br441 charge =  -0.20000000000000001
       atom            1  Br charge =  -0.20000000000000001
     Mol Kind Br442 charge =  -0.20000000000000001
       atom            1  Br charge =  -0.20000000000000001
     Mol Kind Br443 charge =  -0.20000000000000001
       atom            1  Br charge =  -0.20000000000000001
     Mol Kind Br444 charge =  -0.20000000000000001
       atom            1  Br charge =  -0.20000000000000001
     Mol Kind Br445 charge =  -0.20000000000000001
       atom            1  Br charge =  -0.20000000000000001
     Mol Kind Br446 charge =  -0.20000000000000001
       atom            1  Br charge =  -0.20000000000000001
     Mol Kind Br447 charge =  -0.20000000000000001
       atom            1  Br charge =  -0.20000000000000001
     Mol Kind Br448 charge =  -0.20000000000000001
       atom            1  Br charge =  -0.20000000000000001
     Mol Kind Br449 charge =  -0.20000000000000001
       atom            1  Br charge =  -0.20000000000000001
     Mol Kind Br450 charge =  -0.20000000000000001
       atom            1  Br charge =  -0.20000000000000001
     Mol Kind Br451 charge =  -0.20000000000000001
       atom            1  Br charge =  -0.20000000000000001
     Mol Kind Br452 charge =  -0.20000000000000001
       atom            1  Br charge =  -0.20000000000000001
     Mol Kind Br453 charge =  -0.20000000000000001
       atom            1  Br charge =  -0.20000000000000001
     Mol Kind Br454 charge =  -0.20000000000000001
       atom            1  Br charge =  -0.20000000000000001
     Mol Kind Br455 charge =  -0.20000000000000001
       atom            1  Br charge =  -0.20000000000000001
     Mol Kind Br456 charge =  -0.20000000000000001
       atom            1  Br charge =  -0.20000000000000001
     Mol Kind Br457 charge =  -0.20000000000000001
       atom            1  Br charge =  -0.20000000000000001
     Mol Kind Br458 charge =  -0.20000000000000001
       atom            1  Br charge =  -0.20000000000000001
     Mol Kind Br459 charge =  -0.20000000000000001
       atom            1  Br charge =  -0.20000000000000001
     Mol Kind Br460 charge =  -0.20000000000000001
       atom            1  Br charge =  -0.20000000000000001
     Mol Kind Br461 charge =  -0.20000000000000001
       atom            1  Br charge =  -0.20000000000000001
     Mol Kind Br462 charge =  -0.20000000000000001
       atom            1  Br charge =  -0.20000000000000001
     Mol Kind Br463 charge =  -0.20000000000000001
       atom            1  Br charge =  -0.20000000000000001
     Mol Kind Br464 charge =  -0.20000000000000001
       atom            1  Br charge =  -0.20000000000000001
     Mol Kind Br465 charge =  -0.20000000000000001
       atom            1  Br charge =  -0.20000000000000001
     Mol Kind Br466 charge =  -0.20000000000000001
       atom            1  Br charge =  -0.20000000000000001
     Mol Kind Br467 charge =  -0.20000000000000001
       atom            1  Br charge =  -0.20000000000000001
     Mol Kind Br468 charge =  -0.20000000000000001
       atom            1  Br charge =  -0.20000000000000001
     Mol Kind Br469 charge =  -0.20000000000000001
       atom            1  Br charge =  -0.20000000000000001
     Mol Kind Br470 charge =  -0.20000000000000001
       atom            1  Br charge =  -0.20000000000000001
     Mol Kind Br471 charge =  -0.20000000000000001
       atom            1  Br charge =  -0.20000000000000001
     Mol Kind Br472 charge =  -0.20000000000000001
       atom            1  Br charge =  -0.20000000000000001
     Mol Kind Br473 charge =  -0.20000000000000001
       atom            1  Br charge =  -0.20000000000000001
     Mol Kind Br474 charge =  -0.20000000000000001
       atom            1  Br charge =  -0.20000000000000001
     Mol Kind Br475 charge =  -0.20000000000000001
       atom            1  Br charge =  -0.20000000000000001
     Mol Kind Br476 charge =  -0.20000000000000001
       atom            1  Br charge =  -0.20000000000000001
     Mol Kind Br477 charge =  -0.20000000000000001
       atom            1  Br charge =  -0.20000000000000001
     Mol Kind Br478 charge =  -0.20000000000000001
       atom            1  Br charge =  -0.20000000000000001
     Mol Kind Br479 charge =  -0.20000000000000001
       atom            1  Br charge =  -0.20000000000000001
     Mol Kind Br480 charge =  -0.20000000000000001
       atom            1  Br charge =  -0.20000000000000001
     Mol Kind Br481 charge =  -0.20000000000000001
       atom            1  Br charge =  -0.20000000000000001
     Mol Kind Br482 charge =  -0.20000000000000001
       atom            1  Br charge =  -0.20000000000000001
     Mol Kind Br483 charge =  -0.20000000000000001
       atom            1  Br charge =  -0.20000000000000001
     Mol Kind Br484 charge =  -0.20000000000000001
       atom            1  Br charge =  -0.20000000000000001
     Mol Kind Br485 charge =  -0.20000000000000001
       atom            1  Br charge =  -0.20000000000000001
     Mol Kind Br486 charge =  -0.20000000000000001
       atom            1  Br charge =  -0.20000000000000001
     Mol Kind Br487 charge =  -0.20000000000000001
       atom            1  Br charge =  -0.20000000000000001
     Mol Kind Br488 charge =  -0.20000000000000001
       atom            1  Br charge =  -0.20000000000000001
     Mol Kind Br489 charge =  -0.20000000000000001
       atom            1  Br charge =  -0.20000000000000001
     Mol Kind Br490 charge =  -0.20000000000000001
       atom            1  Br charge =  -0.20000000000000001
     Mol Kind Br491 charge =  -0.20000000000000001
       atom            1  Br charge =  -0.20000000000000001
     Mol Kind Br492 charge =  -0.20000000000000001
       atom            1  Br charge =  -0.20000000000000001
     Mol Kind Br493 charge =  -0.20000000000000001
       atom            1  Br charge =  -0.20000000000000001
     Mol Kind Br494 charge =  -0.20000000000000001
       atom            1  Br charge =  -0.20000000000000001
     Mol Kind Br495 charge =  -0.20000000000000001
       atom            1  Br charge =  -0.20000000000000001
     Mol Kind Br496 charge =  -0.20000000000000001
       atom            1  Br charge =  -0.20000000000000001
     Mol Kind Br497 charge =  -0.20000000000000001
       atom            1  Br charge =  -0.20000000000000001
     Mol Kind Br498 charge =  -0.20000000000000001
       atom            1  Br charge =  -0.20000000000000001
     Mol Kind Br499 charge =  -0.20000000000000001
       atom            1  Br charge =  -0.20000000000000001
     Mol Kind Br500 charge =  -0.20000000000000001
       atom            1  Br charge =  -0.20000000000000001
     Mol Kind Br501 charge =  -0.20000000000000001
       atom            1  Br charge =  -0.20000000000000001
     Mol Kind Br502 charge =  -0.20000000000000001
       atom            1  Br charge =  -0.20000000000000001
     Mol Kind Br503 charge =  -0.20000000000000001
       atom            1  Br charge =  -0.20000000000000001
     Mol Kind Br504 charge =  -0.20000000000000001
       atom            1  Br charge =  -0.20000000000000001
     Mol Kind Br505 charge =  -0.20000000000000001
       atom            1  Br charge =  -0.20000000000000001
     Mol Kind Br506 charge =  -0.20000000000000001
       atom            1  Br charge =  -0.20000000000000001
     Mol Kind Br507 charge =  -0.20000000000000001
       atom            1  Br charge =  -0.20000000000000001
     Mol Kind Br508 charge =  -0.20000000000000001
       atom            1  Br charge =  -0.20000000000000001
     Mol Kind Br509 charge =  -0.20000000000000001
       atom            1  Br charge =  -0.20000000000000001
     Mol Kind Br510 charge =  -0.20000000000000001
       atom            1  Br charge =  -0.20000000000000001
     Mol Kind Br511 charge =  -0.20000000000000001
       atom            1  Br charge =  -0.20000000000000001
     Mol Kind Br512 charge =  -0.20000000000000001
       atom            1  Br charge =  -0.20000000000000001
     Mol Kind Br513 charge =  -0.20000000000000001
       atom            1  Br charge =  -0.20000000000000001
     Mol Kind Br514 charge =  -0.20000000000000001
       atom            1  Br charge =  -0.20000000000000001
     Mol Kind Br515 charge =  -0.20000000000000001
       atom            1  Br charge =  -0.20000000000000001
     Mol Kind Br516 charge =  -0.20000000000000001
       atom            1  Br charge =  -0.20000000000000001
     Mol Kind Br517 charge =  -0.20000000000000001
       atom            1  Br charge =  -0.20000000000000001
     Mol Kind Br518 charge =  -0.20000000000000001
       atom            1  Br charge =  -0.20000000000000001
     Mol Kind Br519 charge =  -0.20000000000000001
       atom            1  Br charge =  -0.20000000000000001
     Mol Kind Br520 charge =  -0.20000000000000001
       atom            1  Br charge =  -0.20000000000000001
     Mol Kind Br521 charge =  -0.20000000000000001
       atom            1  Br charge =  -0.20000000000000001
     Mol Kind Br522 charge =  -0.20000000000000001
       atom            1  Br charge =  -0.20000000000000001
     Mol Kind Br523 charge =  -0.20000000000000001
       atom            1  Br charge =  -0.20000000000000001
     Mol Kind Br524 charge =  -0.20000000000000001
       atom            1  Br charge =  -0.20000000000000001
     Mol Kind Br525 charge =  -0.20000000000000001
       atom            1  Br charge =  -0.20000000000000001
     Mol Kind Br526 charge =  -0.20000000000000001
       atom            1  Br charge =  -0.20000000000000001
     Mol Kind Br527 charge =  -0.20000000000000001
       atom            1  Br charge =  -0.20000000000000001
     Mol Kind Br528 charge =  -0.20000000000000001
       atom            1  Br charge =  -0.20000000000000001
     Mol Kind Br529 charge =  -0.20000000000000001
       atom            1  Br charge =  -0.20000000000000001
     Mol Kind Br530 charge =  -0.20000000000000001
       atom            1  Br charge =  -0.20000000000000001
     Mol Kind Br531 charge =  -0.20000000000000001
       atom            1  Br charge =  -0.20000000000000001
     Mol Kind Br532 charge =  -0.20000000000000001
       atom            1  Br charge =  -0.20000000000000001
     Mol Kind Br533 charge =  -0.20000000000000001
       atom            1  Br charge =  -0.20000000000000001
     Mol Kind Br534 charge =  -0.20000000000000001
       atom            1  Br charge =  -0.20000000000000001
     Mol Kind Br535 charge =  -0.20000000000000001
       atom            1  Br charge =  -0.20000000000000001
     Mol Kind Br536 charge =  -0.20000000000000001
       atom            1  Br charge =  -0.20000000000000001
     Mol Kind Br537 charge =  -0.20000000000000001
       atom            1  Br charge =  -0.20000000000000001
     Mol Kind Br538 charge =  -0.20000000000000001
       atom            1  Br charge =  -0.20000000000000001
     Mol Kind Br539 charge =  -0.20000000000000001
       atom            1  Br charge =  -0.20000000000000001
     Mol Kind Br540 charge =  -0.20000000000000001
       atom            1  Br charge =  -0.20000000000000001
       atom            2  Br charge =  -0.20000000000000001
       atom            3  Br charge =  -0.20000000000000001
       atom            4  Br charge =  -0.20000000000000001
       atom            5  Br charge =  -0.20000000000000001
       atom            6  Br charge =  -0.20000000000000001
       atom            7  Br charge =  -0.20000000000000001
       atom            8  Br charge =  -0.20000000000000001
       atom            9  Br charge =  -0.20000000000000001
       atom           10  Br charge =  -0.20000000000000001
       atom           11  Br charge =  -0.20000000000000001
       atom           12  Br charge =  -0.20000000000000001
       atom           13  Br charge =  -0.20000000000000001
       atom           14  Br charge =  -0.20000000000000001
       atom           15  Br charge =  -0.20000000000000001
       atom           16  Br charge =  -0.20000000000000001
       atom           17  Br charge =  -0.20000000000000001
       atom           18  Br charge =  -0.20000000000000001
       atom           19  Br charge =  -0.20000000000000001
       atom           20  Br charge =  -0.20000000000000001
       atom           21  Pb charge =   0.40000000000000002
       atom           22  Pb charge =   0.40000000000000002
       atom           23  Pb charge =   0.40000000000000002
       atom           24  Pb charge =   0.40000000000000002
       atom           25  Pb charge =   0.40000000000000002
       atom           26  Pb charge =   0.40000000000000002
       atom           27  Pb charge =   0.40000000000000002
       atom           28  Pb charge =   0.40000000000000002
       atom           29  Pb charge =   0.40000000000000002
       atom           30  Pb charge =   0.40000000000000002
       atom           31  Pb charge =   0.40000000000000002
       atom           32  Pb charge =   0.40000000000000002
       atom           33  Pb charge =   0.40000000000000002
       atom           34  Pb charge =   0.40000000000000002
       atom           35  Pb charge =   0.40000000000000002
       atom           36  Pb charge =   0.40000000000000002
       atom           37  Pb charge =   0.40000000000000002
       atom           38  Pb charge =   0.40000000000000002
       atom           39  Pb charge =   0.40000000000000002
       atom           40  Pb charge =   0.40000000000000002
       atom           41  Pb charge =   0.40000000000000002
       atom           42  Pb charge =   0.40000000000000002
       atom           43  Pb charge =   0.40000000000000002
       atom           44  Pb charge =   0.40000000000000002
       atom           45  Pb charge =   0.40000000000000002
       atom           46  Pb charge =   0.40000000000000002
       atom           47  Pb charge =   0.40000000000000002
       atom           48  Pb charge =   0.40000000000000002
       atom           49  Pb charge =   0.40000000000000002
       atom           50  Pb charge =   0.40000000000000002
       atom           51  Pb charge =   0.40000000000000002
       atom           52  Pb charge =   0.40000000000000002
       atom           53  Pb charge =   0.40000000000000002
       atom           54  Pb charge =   0.40000000000000002
       atom           55  Pb charge =   0.40000000000000002
       atom           56  Pb charge =   0.40000000000000002
       atom           57  Pb charge =   0.40000000000000002
       atom           58  Pb charge =   0.40000000000000002
       atom           59  Pb charge =   0.40000000000000002
       atom           60  Pb charge =   0.40000000000000002
       atom           61  Pb charge =   0.40000000000000002
       atom           62  Pb charge =   0.40000000000000002
       atom           63  Pb charge =   0.40000000000000002
       atom           64  Pb charge =   0.40000000000000002
       atom           65  Pb charge =   0.40000000000000002
       atom           66  Pb charge =   0.40000000000000002
       atom           67  Pb charge =   0.40000000000000002
       atom           68  Pb charge =   0.40000000000000002
       atom           69  Pb charge =   0.40000000000000002
       atom           70  Pb charge =   0.40000000000000002
       atom           71  Pb charge =   0.40000000000000002
       atom           72  Pb charge =   0.40000000000000002
       atom           73  Pb charge =   0.40000000000000002
       atom           74  Pb charge =   0.40000000000000002
       atom           75  Pb charge =   0.40000000000000002
       atom           76  Pb charge =   0.40000000000000002
       atom           77  Pb charge =   0.40000000000000002
       atom           78  Pb charge =   0.40000000000000002
       atom           79  Pb charge =   0.40000000000000002
       atom           80  Pb charge =   0.40000000000000002
       atom           81  Pb charge =   0.40000000000000002
       atom           82  Pb charge =   0.40000000000000002
       atom           83  Pb charge =   0.40000000000000002
       atom           84  Pb charge =   0.40000000000000002
       atom           85  Pb charge =   0.40000000000000002
       atom           86  Pb charge =   0.40000000000000002
       atom           87  Pb charge =   0.40000000000000002
       atom           88  Pb charge =   0.40000000000000002
       atom           89  Pb charge =   0.40000000000000002
       atom           90  Pb charge =   0.40000000000000002
       atom           91  Pb charge =   0.40000000000000002
       atom           92  Pb charge =   0.40000000000000002
       atom           93  Pb charge =   0.40000000000000002
       atom           94  Pb charge =   0.40000000000000002
       atom           95  Pb charge =   0.40000000000000002
       atom           96  Pb charge =   0.40000000000000002
       atom           97  Pb charge =   0.40000000000000002
       atom           98  Pb charge =   0.40000000000000002
       atom           99  Pb charge =   0.40000000000000002
       atom          100  Pb charge =   0.40000000000000002
       atom          101  Pb charge =   0.40000000000000002
       atom          102  Pb charge =   0.40000000000000002
       atom          103  Pb charge =   0.40000000000000002
       atom          104  Pb charge =   0.40000000000000002
       atom          105  Pb charge =   0.40000000000000002
       atom          106  Pb charge =   0.40000000000000002
       atom          107  Pb charge =   0.40000000000000002
       atom          108  Pb charge =   0.40000000000000002
       atom          109  Pb charge =   0.40000000000000002
       atom          110  Pb charge =   0.40000000000000002
       atom          111  Pb charge =   0.40000000000000002
       atom          112  Pb charge =   0.40000000000000002
       atom          113  Pb charge =   0.40000000000000002
       atom          114  Pb charge =   0.40000000000000002
       atom          115  Pb charge =   0.40000000000000002
       atom          116  Pb charge =   0.40000000000000002
       atom          117  Pb charge =   0.40000000000000002
       atom          118  Pb charge =   0.40000000000000002
       atom          119  Pb charge =   0.40000000000000002
       atom          120  Pb charge =   0.40000000000000002
       atom          121  Pb charge =   0.40000000000000002
       atom          122  Pb charge =   0.40000000000000002
       atom          123  Pb charge =   0.40000000000000002
       atom          124  Pb charge =   0.40000000000000002
       atom          125  Pb charge =   0.40000000000000002
       atom          126  Pb charge =   0.40000000000000002
       atom          127  Pb charge =   0.40000000000000002
       atom          128  Pb charge =   0.40000000000000002
       atom          129  Cs charge =   0.20000000000000001
       atom          130  Cs charge =   0.20000000000000001
       atom          131  Cs charge =   0.20000000000000001
       atom          132  Cs charge =   0.20000000000000001
       atom          133  Cs charge =   0.20000000000000001
       atom          134  Cs charge =   0.20000000000000001
       atom          135  Cs charge =   0.20000000000000001
       atom          136  Cs charge =   0.20000000000000001
       atom          137  Cs charge =   0.20000000000000001
       atom          138  Cs charge =   0.20000000000000001
       atom          139  Cs charge =   0.20000000000000001
       atom          140  Cs charge =   0.20000000000000001
       atom          141  Cs charge =   0.20000000000000001
       atom          142  Cs charge =   0.20000000000000001
       atom          143  Cs charge =   0.20000000000000001
       atom          144  Cs charge =   0.20000000000000001
       atom          145  Cs charge =   0.20000000000000001
       atom          146  Cs charge =   0.20000000000000001
       atom          147  Cs charge =   0.20000000000000001
       atom          148  Cs charge =   0.20000000000000001
       atom          149  Cs charge =   0.20000000000000001
       atom          150  Cs charge =   0.20000000000000001
       atom          151  Cs charge =   0.20000000000000001
       atom          152  Cs charge =   0.20000000000000001
       atom          153  Cs charge =   0.20000000000000001
       atom          154  Cs charge =   0.20000000000000001
       atom          155  Cs charge =   0.20000000000000001
       atom          156  Cs charge =   0.20000000000000001
       atom          157  Cs charge =   0.20000000000000001
       atom          158  Cs charge =   0.20000000000000001
       atom          159  Cs charge =   0.20000000000000001
       atom          160  Cs charge =   0.20000000000000001
       atom          161  Cs charge =   0.20000000000000001
       atom          162  Cs charge =   0.20000000000000001
       atom          163  Cs charge =   0.20000000000000001
       atom          164  Cs charge =   0.20000000000000001
       atom          165  Cs charge =   0.20000000000000001
       atom          166  Cs charge =   0.20000000000000001
       atom          167  Cs charge =   0.20000000000000001
       atom          168  Cs charge =   0.20000000000000001
       atom          169  Cs charge =   0.20000000000000001
       atom          170  Cs charge =   0.20000000000000001
       atom          171  Cs charge =   0.20000000000000001
       atom          172  Cs charge =   0.20000000000000001
       atom          173  Cs charge =   0.20000000000000001
       atom          174  Cs charge =   0.20000000000000001
       atom          175  Cs charge =   0.20000000000000001
       atom          176  Cs charge =   0.20000000000000001
       atom          177  Cs charge =   0.20000000000000001
       atom          178  Cs charge =   0.20000000000000001
       atom          179  Cs charge =   0.20000000000000001
       atom          180  Cs charge =   0.20000000000000001
       atom          181  Cs charge =   0.20000000000000001
       atom          182  Cs charge =   0.20000000000000001
       atom          183  Cs charge =   0.20000000000000001
       atom          184  Cs charge =   0.20000000000000001
       atom          185  Cs charge =   0.20000000000000001
       atom          186  Cs charge =   0.20000000000000001
       atom          187  Cs charge =   0.20000000000000001
       atom          188  Cs charge =   0.20000000000000001
       atom          189  Cs charge =   0.20000000000000001
       atom          190  Cs charge =   0.20000000000000001
       atom          191  Cs charge =   0.20000000000000001
       atom          192  Cs charge =   0.20000000000000001
       atom          193  Cs charge =   0.20000000000000001
       atom          194  Cs charge =   0.20000000000000001
       atom          195  Cs charge =   0.20000000000000001
       atom          196  Cs charge =   0.20000000000000001
       atom          197  Cs charge =   0.20000000000000001
       atom          198  Cs charge =   0.20000000000000001
       atom          199  Cs charge =   0.20000000000000001
       atom          200  Cs charge =   0.20000000000000001
       atom          201  Cs charge =   0.20000000000000001
       atom          202  Cs charge =   0.20000000000000001
       atom          203  Cs charge =   0.20000000000000001
       atom          204  Cs charge =   0.20000000000000001
       atom          205  Cs charge =   0.20000000000000001
       atom          206  Cs charge =   0.20000000000000001
       atom          207  Cs charge =   0.20000000000000001
       atom          208  Cs charge =   0.20000000000000001
[...]
 POTENTIAL ENERGY[hartree]    =         -0.579437770312E+01  -0.604506189156E+01
 KINETIC ENERGY [hartree]     =          0.341877558775E+00   0.516120376555E+00
 TEMPERATURE [K]              =                     133.527              201.580
 PRESSURE [bar]               =         -0.759498212894E+03  -0.266018724372E+02
 BAROSTAT TEMP[K]             =          0.234675777856E+03   0.834786068513E+03
 VOLUME[bohr^3]               =          0.213767816191E+06   0.199177346175E+06
 CELL LNTHS[bohr]             =    0.5344443E+02   0.7548125E+02   0.5300109E+02
 AVE. CELL LNTHS[bohr]        =    0.5230718E+02   0.7378042E+02   0.5157274E+02
 CELL ANGLS[deg]              =    0.9023447E+02   0.8892812E+02   0.8974637E+02
 AVE. CELL ANGLS[deg]         =    0.9029091E+02   0.8970934E+02   0.9043467E+02
 *******************************************************************************


 ENERGY| Total FORCE_EVAL ( FIST ) energy (a.u.):             -5.792534033464666


 *******************************************************************************
 ENSEMBLE TYPE                =                                            NPT_F
 STEP NUMBER                  =                                               93
 TIME [fs]                    =                                       232.500000
 CONSERVED QUANTITY [hartree] =                              -0.555057027633E+01

                                              INSTANTANEOUS             AVERAGES
 CPU TIME [s]                 =                        0.09                 0.07
 ENERGY DRIFT PER ATOM [K]    =         -0.572577552847E+00  -0.246237977706E+00
 POTENTIAL ENERGY[hartree]    =         -0.579253403346E+01  -0.604234653824E+01
 KINETIC ENERGY [hartree]     =          0.338839570967E+00   0.514214131334E+00
 TEMPERATURE [K]              =                     132.340              200.836
 PRESSURE [bar]               =         -0.756846866708E+03  -0.344539691498E+02
 BAROSTAT TEMP[K]             =          0.230107860949E+03   0.828284152303E+03
 VOLUME[bohr^3]               =          0.213808901234E+06   0.199334674724E+06
 CELL LNTHS[bohr]             =    0.5343584E+02   0.7548764E+02   0.5301571E+02
 AVE. CELL LNTHS[bohr]        =    0.5231931E+02   0.7379878E+02   0.5158826E+02
 CELL ANGLS[deg]              =    0.9022979E+02   0.8891319E+02   0.8971188E+02
 AVE. CELL ANGLS[deg]         =    0.9029025E+02   0.8970078E+02   0.9042690E+02
 *******************************************************************************


 ENERGY| Total FORCE_EVAL ( FIST ) energy (a.u.):             -5.790789483177531


 *******************************************************************************
 ENSEMBLE TYPE                =                                            NPT_F
 STEP NUMBER                  =                                               94
 TIME [fs]                    =                                       235.000000
 CONSERVED QUANTITY [hartree] =                              -0.555058122692E+01

                                              INSTANTANEOUS             AVERAGES
 CPU TIME [s]                 =                        0.09                 0.07
 ENERGY DRIFT PER ATOM [K]    =         -0.578981105852E+00  -0.249777798218E+00
 POTENTIAL ENERGY[hartree]    =         -0.579078948318E+01  -0.603967039936E+01
 KINETIC ENERGY [hartree]     =          0.339247766745E+00   0.512352787030E+00
 TEMPERATURE [K]              =                     132.499              200.109
 PRESSURE [bar]               =         -0.748628176949E+03  -0.420515671051E+02
 BAROSTAT TEMP[K]             =          0.210471043128E+03   0.821711672418E+03
 VOLUME[bohr^3]               =          0.213832859818E+06   0.199488910735E+06
 CELL LNTHS[bohr]             =    0.5342578E+02   0.7549220E+02   0.5302884E+02
 AVE. CELL LNTHS[bohr]        =    0.5233108E+02   0.7381679E+02   0.5160358E+02
 CELL ANGLS[deg]              =    0.9022526E+02   0.8889908E+02   0.8967751E+02
 AVE. CELL ANGLS[deg]         =    0.9028956E+02   0.8969225E+02   0.9041893E+02
 *******************************************************************************


 ENERGY| Total FORCE_EVAL ( FIST ) energy (a.u.):             -5.789142404911289


 *******************************************************************************
 ENSEMBLE TYPE                =                                            NPT_F
 STEP NUMBER                  =                                               95
 TIME [fs]                    =                                       237.500000
 CONSERVED QUANTITY [hartree] =                              -0.555059189899E+01

                                              INSTANTANEOUS             AVERAGES
 CPU TIME [s]                 =                        0.09                 0.07
 ENERGY DRIFT PER ATOM [K]    =         -0.585221791474E+00  -0.253308787621E+00
 POTENTIAL ENERGY[hartree]    =         -0.578914240491E+01  -0.603703326258E+01
 KINETIC ENERGY [hartree]     =          0.339138005341E+00   0.510529473538E+00
 TEMPERATURE [K]              =                     132.457              199.397
 PRESSURE [bar]               =         -0.739401287597E+03  -0.493920904787E+02
 BAROSTAT TEMP[K]             =          0.217176822848E+03   0.815348147686E+03
 VOLUME[bohr^3]               =          0.213839407227E+06   0.199639968593E+06
 CELL LNTHS[bohr]             =    0.5341455E+02   0.7549486E+02   0.5304014E+02
 AVE. CELL LNTHS[bohr]        =    0.5234249E+02   0.7383446E+02   0.5161871E+02
 CELL ANGLS[deg]              =    0.9022103E+02   0.8888618E+02   0.8964423E+02
 AVE. CELL ANGLS[deg]         =    0.9028884E+02   0.8968376E+02   0.9041077E+02
 *******************************************************************************


 ENERGY| Total FORCE_EVAL ( FIST ) energy (a.u.):             -5.787586435167360


 *******************************************************************************
 ENSEMBLE TYPE                =                                            NPT_F
 STEP NUMBER                  =                                               96
 TIME [fs]                    =                                       240.000000
 CONSERVED QUANTITY [hartree] =                              -0.555060280838E+01

                                              INSTANTANEOUS             AVERAGES
 CPU TIME [s]                 =                        0.09                 0.07
 ENERGY DRIFT PER ATOM [K]    =         -0.591601251684E+00  -0.256832667455E+00
 POTENTIAL ENERGY[hartree]    =         -0.578758643517E+01  -0.603443485812E+01
 KINETIC ENERGY [hartree]     =          0.339269475643E+00   0.508745515227E+00
 TEMPERATURE [K]              =                     132.508              198.700
 PRESSURE [bar]               =         -0.728396992389E+03  -0.564650582069E+02
 BAROSTAT TEMP[K]             =          0.206084320017E+03   0.809001649481E+03
 VOLUME[bohr^3]               =          0.213829133796E+06   0.199787772397E+06
 CELL LNTHS[bohr]             =    0.5340189E+02   0.7549573E+02   0.5304997E+02
 AVE. CELL LNTHS[bohr]        =    0.5235352E+02   0.7385176E+02   0.5163362E+02
 CELL ANGLS[deg]              =    0.9021696E+02   0.8887413E+02   0.8961113E+02
 AVE. CELL ANGLS[deg]         =    0.9028809E+02   0.8967533E+02   0.9040244E+02
 *******************************************************************************


 ENERGY| Total FORCE_EVAL ( FIST ) energy (a.u.):             -5.786116494757288


 *******************************************************************************
 ENSEMBLE TYPE                =                                            NPT_F
 STEP NUMBER                  =                                               97
 TIME [fs]                    =                                       242.500000
 CONSERVED QUANTITY [hartree] =                              -0.555061343765E+01

                                              INSTANTANEOUS             AVERAGES
 CPU TIME [s]                 =                        0.09                 0.07
 ENERGY DRIFT PER ATOM [K]    =         -0.597816906432E+00  -0.260347968887E+00
 POTENTIAL ENERGY[hartree]    =         -0.578611649476E+01  -0.603187487500E+01
 KINETIC ENERGY [hartree]     =          0.340329911609E+00   0.507009271891E+00
 TEMPERATURE [K]              =                     132.922              198.022
 PRESSURE [bar]               =         -0.714885622170E+03  -0.632528990725E+02
 BAROSTAT TEMP[K]             =          0.202992334100E+03   0.802754130766E+03
 VOLUME[bohr^3]               =          0.213802414115E+06   0.199932253240E+06
 CELL LNTHS[bohr]             =    0.5338794E+02   0.7549483E+02   0.5305823E+02
 AVE. CELL LNTHS[bohr]        =    0.5236419E+02   0.7386870E+02   0.5164830E+02
 CELL ANGLS[deg]              =    0.9021310E+02   0.8886306E+02   0.8957853E+02
 AVE. CELL ANGLS[deg]         =    0.9028732E+02   0.8966696E+02   0.9039395E+02
 *******************************************************************************


 ENERGY| Total FORCE_EVAL ( FIST ) energy (a.u.):             -5.784724707225758


 *******************************************************************************
 ENSEMBLE TYPE                =                                            NPT_F
 STEP NUMBER                  =                                               98
 TIME [fs]                    =                                       245.000000
 CONSERVED QUANTITY [hartree] =                              -0.555062391564E+01

                                              INSTANTANEOUS             AVERAGES
 CPU TIME [s]                 =                        0.09                 0.07
 ENERGY DRIFT PER ATOM [K]    =         -0.603944095858E+00  -0.263854051816E+00
 POTENTIAL ENERGY[hartree]    =         -0.578472470723E+01  -0.602935293451E+01
 KINETIC ENERGY [hartree]     =          0.339795763670E+00   0.505303011603E+00
 TEMPERATURE [K]              =                     132.714              197.355
 PRESSURE [bar]               =         -0.700897754390E+03  -0.697594792288E+02
 BAROSTAT TEMP[K]             =          0.198877774306E+03   0.796592127128E+03
 VOLUME[bohr^3]               =          0.213758936195E+06   0.200073341841E+06
 CELL LNTHS[bohr]             =    0.5337246E+02   0.7549218E+02   0.5306510E+02
 AVE. CELL LNTHS[bohr]        =    0.5237448E+02   0.7388527E+02   0.5166276E+02
 CELL ANGLS[deg]              =    0.9020939E+02   0.8885276E+02   0.8954581E+02
 AVE. CELL ANGLS[deg]         =    0.9028652E+02   0.8965865E+02   0.9038530E+02
 *******************************************************************************


 ENERGY| Total FORCE_EVAL ( FIST ) energy (a.u.):             -5.783408342558440


 *******************************************************************************
 ENSEMBLE TYPE                =                                            NPT_F
 STEP NUMBER                  =                                               99
 TIME [fs]                    =                                       247.500000
 CONSERVED QUANTITY [hartree] =                              -0.555063489335E+01

                                              INSTANTANEOUS             AVERAGES
 CPU TIME [s]                 =                        0.09                 0.07
 ENERGY DRIFT PER ATOM [K]    =         -0.610363510543E+00  -0.267354147358E+00
 POTENTIAL ENERGY[hartree]    =         -0.578340834256E+01  -0.602686864570E+01
 KINETIC ENERGY [hartree]     =          0.341222034914E+00   0.503645628000E+00
 TEMPERATURE [K]              =                     133.271              196.708
 PRESSURE [bar]               =         -0.683694976607E+03  -0.759608478892E+02
 BAROSTAT TEMP[K]             =          0.193925880553E+03   0.790504589284E+03
 VOLUME[bohr^3]               =          0.213701935088E+06   0.200211004399E+06
 CELL LNTHS[bohr]             =    0.5335643E+02   0.7548800E+02   0.5307021E+02
 AVE. CELL LNTHS[bohr]        =    0.5238440E+02   0.7390146E+02   0.5167698E+02
 CELL ANGLS[deg]              =    0.9020604E+02   0.8884386E+02   0.8951498E+02
 AVE. CELL ANGLS[deg]         =    0.9028571E+02   0.8965042E+02   0.9037650E+02
 *******************************************************************************


 ENERGY| Total FORCE_EVAL ( FIST ) energy (a.u.):             -5.782157244843935


 *******************************************************************************
 ENSEMBLE TYPE                =                                            NPT_F
 STEP NUMBER                  =                                              100
 TIME [fs]                    =                                       250.000000
 CONSERVED QUANTITY [hartree] =                              -0.555064532229E+01

                                              INSTANTANEOUS             AVERAGES
 CPU TIME [s]                 =                        0.09                 0.07
 ENERGY DRIFT PER ATOM [K]    =         -0.616462015779E+00  -0.270845226043E+00
 POTENTIAL ENERGY[hartree]    =         -0.578215724484E+01  -0.602442153169E+01
 KINETIC ENERGY [hartree]     =          0.342102578740E+00   0.502030197507E+00
 TEMPERATURE [K]              =                     133.614              196.077
 PRESSURE [bar]               =         -0.665147897678E+03  -0.818527183871E+02
 BAROSTAT TEMP[K]             =          0.204973705667E+03   0.784649280448E+03
 VOLUME[bohr^3]               =          0.213628969014E+06   0.200345184046E+06
 CELL LNTHS[bohr]             =    0.5333906E+02   0.7548212E+02   0.5307389E+02
 AVE. CELL LNTHS[bohr]        =    0.5239394E+02   0.7391726E+02   0.5169094E+02
 CELL ANGLS[deg]              =    0.9020288E+02   0.8883587E+02   0.8948434E+02
 AVE. CELL ANGLS[deg]         =    0.9028488E+02   0.8964227E+02   0.9036758E+02
 *******************************************************************************


 -------------------------------------------------------------------------------
 -                                                                             -
 -                                DBCSR STATISTICS                             -
 -                                                                             -
 -------------------------------------------------------------------------------
 COUNTER                                    TOTAL       BLAS       SMM       ACC
 flops inhomo. stacks                           0       0.0%      0.0%      0.0%
 flops total                         0.000000E+00       0.0%      0.0%      0.0%
 flops max/rank                      0.000000E+00       0.0%      0.0%      0.0%
 matmuls inhomo. stacks                         0       0.0%      0.0%      0.0%
 matmuls total                                  0       0.0%      0.0%      0.0%
 number of processed stacks                     0       0.0%      0.0%      0.0%
 average stack size                                     0.0       0.0       0.0
 marketing flops                     0.000000E+00
 -------------------------------------------------------------------------------

 MEMORY| Estimated peak process memory [MiB]                                   0

 -------------------------------------------------------------------------------
 -                                                                             -
 -                           R E F E R E N C E S                               -
 -                                                                             -
 -------------------------------------------------------------------------------

 CP2K version 6.1, the CP2K developers group (2018).
 CP2K is freely available from https://www.cp2k.org/ .

 Schuett, Ole; Messmer, Peter; Hutter, Juerg; VandeVondele, Joost.
 Electronic Structure Calculations on Graphics Processing Units, John Wiley & Sons, Ltd, 173-190 (2016).
 GPU-Accelerated Sparse Matrix-Matrix Multiplication for Linear Scaling Density Functional Theory.
 http://dx.doi.org/10.1002/9781118670712.ch8


 Borstnik, U; VandeVondele, J; Weber, V; Hutter, J.
 PARALLEL COMPUTING, 40 (5-6), 47-58 (2014).
 Sparse matrix multiplication: The distributed block-compressed sparse
 row library.
 http://dx.doi.org/10.1016/j.parco.2014.03.012


 Hutter, J; Iannuzzi, M; Schiffmann, F; VandeVondele, J.
 WILEY INTERDISCIPLINARY REVIEWS-COMPUTATIONAL MOLECULAR SCIENCE, 4 (1), 15-25 (2014).
 CP2K: atomistic simulations of condensed matter systems.
 http://dx.doi.org/10.1002/wcms.1159


 Bussi, G; Donadio, D; Parrinello, M.
 JOURNAL OF CHEMICAL PHYSICS, 126 (1), 014101 (2007).
 Canonical sampling through velocity rescaling.
 http://dx.doi.org/10.1063/1.2408420


 Frigo, M; Johnson, SG.
 PROCEEDINGS OF THE IEEE, 93 (2), 216-231 (2005).
 The design and implementation of FFTW3.
 http://dx.doi.org/10.1109/JPROC.2004.840301


 ESSMANN, U; PERERA, L; BERKOWITZ, ML; DARDEN, T; LEE, H; PEDERSEN, LG.
 JOURNAL OF CHEMICAL PHYSICS, 103 (19), 8577-8593 (1995).
 A SMOOTH PARTICLE MESH EWALD METHOD.
 http://dx.doi.org/10.1063/1.470117


 -------------------------------------------------------------------------------
 -                                                                             -
 -                                T I M I N G                                  -
 -                                                                             -
 -------------------------------------------------------------------------------
 SUBROUTINE                       CALLS  ASD         SELF TIME        TOTAL TIME
                                MAXIMUM       AVERAGE  MAXIMUM  AVERAGE  MAXIMUM
 CP2K                                 1  1.0    0.011    0.011  287.892  287.892
 qs_mol_dyn_low                       1  2.0    0.478    0.478  287.843  287.843
 velocity_verlet                  10000  3.0    4.724    4.724  217.047  217.047
 fist_calc_energy_force           10001  4.0    1.325    1.325  200.748  200.748
 force_nonbond                    10001  5.0  100.460  100.460  100.460  100.460
 spme_evaluate                    10001  5.0   13.111   13.111   70.592   70.592
 md_output                        10000  3.0    0.051    0.051   69.854   69.854
 md_write_output                  10001  4.0   52.099   52.099   58.643   58.643
 pw_transfer                      90009  6.6    0.278    0.278   45.283   45.283
 fft_wrap_pw1pw2                  40004  7.0    0.523    0.523   41.139   41.139
 fft_wrap_pw1pw2_10               40004  8.0    4.166    4.166   40.616   40.616
 fft3d_s                          40006  9.0   29.668   29.668   29.779   29.779
 list_control                     10001  5.0    0.378    0.378   26.023   26.023
 build_fist_neighbor_lists         2056  6.0    0.058    0.058   25.637   25.637
 build_neighbor_lists              2056  7.0   24.212   24.212   24.841   24.841
 pw_poisson_solve                 10001  6.0    1.560    1.560   12.704   12.704
 write_restart                    10000  4.0    7.797    7.797   11.181   11.181
 csvr_particles                   20000  4.0    8.488    8.488    8.532    8.532
 write_trajectory                 40004  5.0    1.656    1.656    6.310    6.310
 pw_copy                          80008  7.6    6.242    6.242    6.242    6.242
 pw_scatter_s                     30003  9.0    5.828    5.828    5.828    5.828
 -------------------------------------------------------------------------------

 The number of warnings for this run is : 0

 -------------------------------------------------------------------------------
  **** **** ******  **  PROGRAM ENDED AT                 2020-12-23 15:02:31.352
 ***** ** ***  *** **   PROGRAM RAN ON                               192.168.2.6
 **    ****   ******    PROGRAM RAN BY                                  bvanbeek
 ***** **    ** ** **   PROGRAM PROCESS ID                                 34164
  **** **  *******  **  PROGRAM STOPPED IN /Users/bvanbeek/Downloads/MM_MD_workd
                                           ir/md
