     227
 i =        0, time =        0.000, E =        14.0346962742
 Cd        -8.6216924880        0.4810107428        3.4775887729
 Cd        -5.8723589632       -0.2566559957        7.1151373767
 Cd        -8.4076147924       -2.1531404527        0.3867588804
 Cd        -6.8957642261       -3.2896665849        3.9600318291
 Cd        -3.6930098048       -3.6992689615        7.3819491709
 Cd        -6.4429261463       -6.2347087238        0.4622469067
 Cd        -4.3123952394       -6.8285875372        3.9039095072
 Cd        -6.1141073353        3.8626235599        2.9066844924
 Cd        -3.6048790416        2.8797284733        6.5917986711
 Cd        -6.7531255596        1.1841266196       -0.3182182747
 Cd        -4.0437606329        0.0729837467        3.0511954168
 Cd        -1.7753257667       -0.3121054857        6.8316599018
 Cd        -6.3661028473       -1.4630135273       -3.4383357626
 Cd        -4.3602814436       -3.1214810613       -0.1759283953
 Cd        -2.2424276819       -3.6242998489        3.6335413818
 Cd         0.1757294635       -3.9625201566        7.0364714760
 Cd        -4.2692200317       -5.9860442556       -3.0005266361
 Cd        -2.2482225396       -6.7972628816        0.6786391664
 Cd         0.0669003827       -7.3030327295        3.8545421700
 Cd        -4.0792754193        7.4105475565        2.4175118797
 Cd        -1.6116442377        6.4880648240        6.2478272306
 Cd        -4.3308002626        4.8127262164       -0.6762739309
 Cd        -1.8326132452        3.6694977750        3.1598212265
 Cd         0.4939817277        3.1637060931        6.7202662426
 Cd        -4.5980154021        1.9988297698       -4.0880170010
 Cd        -2.1651194586        1.0165564496       -0.4536921834
 Cd         0.1376109507       -0.0659106884        3.1336818174
 Cd         2.6419074521       -0.6636939286        6.8958319365
 Cd        -4.1515129292       -0.5348426091       -6.9620217917
 Cd        -2.2012490343       -1.8491984656       -3.4894107829
 Cd         0.0359311218       -2.8494155653       -0.0264680683
 Cd         2.4407298775       -3.8224684908        3.5289587884
 Cd         4.5907434619       -4.2169180472        6.5928471603
 Cd        -2.6321953796       -4.5685798778       -6.0773989300
 Cd        -0.3638438279       -6.1221236347       -3.0620735359
 Cd         1.9882729153       -6.8506852632       -0.0376753302
 Cd         4.3604701588       -7.5063202656        3.0981086138
 Cd        -2.4313710890        8.2839908015       -1.2010761441
 Cd         0.1210964618        6.7915494583        2.0748938605
 Cd         2.2602783261        6.3879934074        5.9824457591
 Cd        -2.2743307721        5.5403016700       -4.1096429978
 Cd         0.1552258413        4.6164378819       -0.9814446932
 Cd         2.6173372932        3.7540356816        2.4616712460
 Cd         4.3934694910        2.5024270436        5.6448470259
 Cd        -2.3839877703        3.0961459608       -7.5397423510
 Cd        -0.1308699873        1.7716472388       -4.3458913396
 Cd         2.1522040622        0.8595996928       -0.9600505658
 Cd         4.3027041934       -0.4425155449        2.5248589789
 Cd         6.4943132815       -0.6514444341        6.0110723312
 Cd         0.4032906214       -0.5920449882       -7.0625722312
 Cd         2.1504065746       -1.8410095193       -3.9631978812
 Cd         4.1282053355       -2.9764966895       -0.5499119195
 Cd         6.9189885741       -3.8001688729        2.8840486736
 Cd         1.0693858855       -4.7693596381       -6.7909688629
 Cd         3.6529341800       -5.7620820022       -3.6150795142
 Cd         5.7341856059       -6.5625995016       -0.3323817960
 Cd         2.4532379782        8.1225833618       -1.1556872380
 Cd         4.4025673150        7.2904811152        1.7928276254
 Cd         2.3800547108        5.2453457502       -4.8107637235
 Cd         4.8184663347        4.7191125514       -1.4277792117
 Cd         6.7589411702        3.8390778732        2.0295448973
 Cd         2.6210634084        2.7844913241       -7.7035228004
 Cd         4.8495943395        1.7843685348       -4.5225056138
 Cd         6.7261500983        1.0662237140       -0.9642295531
 Cd         8.8881450478        0.4141445330        2.4369093904
 Cd         4.3615782352       -0.9213178924       -7.7328888960
 Cd         6.7438649008       -1.9767569930       -4.2031112584
 Cd         8.5272445020       -2.6218905711       -0.2551455218
 Se        -9.0557725106        0.2424574140        0.9180313808
 Se        -6.3745872764       -0.6570220647        4.4225742627
 Se        -3.9358548519       -1.3506397678        8.2925868769
 Se        -6.5830028390       -3.7408669090        1.3890860046
 Se        -4.5802302415       -4.2716541219        4.8585926421
 Se        -4.6110671623       -7.7792240778        1.5343213278
 Se        -6.6407812351        3.9866809498        0.4586064126
 Se        -4.0705866514        2.6241591830        3.9150270775
 Se        -1.6315747320        2.0143859544        7.9219454430
 Se        -6.7106235468        0.9827493806       -3.1628202938
 Se        -4.4077684895       -0.2106461950        0.3970531668
 Se        -2.0534879979       -1.1190641497        4.2604482105
 Se         0.4069246601       -1.5676855049        8.0617057342
 Se        -4.4126107232       -3.1307459794       -2.8028288282
 Se        -2.2371864822       -4.0884616040        0.9473336128
 Se         0.1541797359       -4.8148952714        4.4843326207
 Se        -2.4147106009       -7.4199706225       -2.0529393442
 Se        -0.0662571417       -7.8800811154        1.3078284855
 Se        -4.5519687636        7.5920037884       -0.0122560791
 Se        -1.8482840651        6.3647212661        3.5390459072
 Se         0.4006735392        5.8241498358        7.5878867146
 Se        -4.4655945585        4.5529209660       -3.3484418515
 Se        -2.0798083538        3.7153034916        0.3451575142
 Se         0.4973892782        2.6967113851        3.7286137790
 Se         2.7724753484        1.9958260876        7.6298945277
 Se        -4.6126224962        2.0736182894       -6.9031574659
 Se        -2.2770211290        0.8531533747       -3.1284312065
 Se         0.0138865169       -0.1636477002        0.3858468104
 Se         2.3115473387       -1.3198431962        4.0017354986
 Se         4.8624545925       -1.8855864388        7.7371297607
 Se        -2.0700877949       -1.9675257511       -6.4603372509
 Se        -0.0447057629       -3.1582708631       -2.8090856920
 Se         2.2343306950       -4.2299664240        0.7817840723
 Se         4.8342987615       -4.9516929708        4.0974643468
 Se        -0.7556003326       -6.2829108386       -5.8406699955
 Se         1.9243057511       -7.4784768035       -2.6074198353
 Se         4.2543989663       -8.3809591814        0.7363809319
 Se         0.0386925703        7.3677075300       -0.4939635450
 Se         2.3791568525        6.5289221229        3.1400383851
 Se         0.0465974103        4.4270318221       -3.5936563407
 Se         2.5167269427        3.6273521599       -0.0581806204
 Se         4.7705604635        2.4670139639        3.1233546104
 Se         0.0435933033        1.9323944164       -6.9695738842
 Se         2.2733127965        0.7623703678       -3.6584263160
 Se         4.3816175435       -0.2841549253       -0.0177063702
 Se         6.9670500347       -1.1290204494        3.5565582379
 Se         2.2410869402       -2.2702007814       -6.6798205275
 Se         4.3723294721       -3.1971869108       -3.2130677403
 Se         6.4331938555       -4.1098532443        0.4136420186
 Se         4.8503033307        7.5509093293       -0.7463548497
 Se         4.8776288797        4.5477652435       -4.0091414448
 Se         7.0830986217        3.5950723552       -0.6434567968
 Se         4.7810064642        1.5273410534       -7.5566303287
 Se         6.9188050062        0.6130038217       -3.7081238627
 Se         9.1066871843       -0.0609359671       -0.0919647969
  C         6.9955771113       -6.9586634775       -2.8583426301
  H         7.7780160969       -7.1271873265       -3.6573399650
  O         5.8389952916       -6.4652991204       -3.1445809228
  O         7.2920676004       -7.2683568805       -1.6893132711
  C         3.3939431960       -6.2668607509       -6.9513074648
  H         4.3245440932       -6.8689211647       -7.0591687882
  O         3.0202466073       -5.7860511295       -5.7843136273
  O         2.6220129789       -6.1746538788       -7.9242101403
  C         6.3116555909       -2.9071154185       -7.4921130606
  H         7.0978863851       -3.7212906458       -7.4285512081
  O         6.0096715894       -2.3219711192       -6.3505932827
  O         5.9403243477       -2.4750431756       -8.6116316973
  C         8.9837561036       -3.3697375837       -3.4349055328
  H         9.9249943929       -3.8864043165       -3.1840078659
  O         8.5659407989       -3.4209184445       -4.6048832464
  O         8.2714489672       -2.6971151254       -2.5207012617
  C         9.7902109758       -4.6282247391        2.1768529346
  H        10.6284324694       -5.3337138149        2.3552924638
  O         9.7484501532       -4.1824896055        0.9942458601
  O         9.0219926648       -4.5705851174        3.1873629795
  C        -2.8252708508       -8.8894178348        5.3653894160
  H        -2.3915771747       -9.8892286280        5.4446685031
  O        -1.9808601030       -7.9304545651        5.0436955975
  O        -4.0908415257       -8.7280019527        5.4030844137
  C         3.0047406823       -8.6887063298        5.2919739424
  H         2.6853413808       -9.0312323512        6.2714246943
  O         1.9985977812       -8.3553887881        4.5599054594
  O         4.2197147413       -8.6069092298        4.9235206312
  C         2.8732291572       -5.7090624943        8.2322507888
  H         2.4095730423       -6.3582442170        8.9295273658
  O         2.2236878889       -4.8031284854        7.6183804854
  O         4.1525405945       -5.8988692439        8.1468427445
  C        -2.5324052264       -5.9090323801        8.5168983878
  H        -2.0058427467       -6.7599986745        9.0204193621
  O        -1.9189018681       -5.2527647032        7.5983339134
  O        -3.6521974131       -5.4981014961        8.8936623702
  C        -6.8661340661        2.3082426882        7.3884767521
  H        -7.2433530482        3.2983326111        7.3747512577
  O        -5.6189307919        2.1553364867        7.5292857639
  O        -7.6694328727        1.3672322100        7.2032576312
  C        -4.1128935570        6.2776012356        7.2258109093
  H        -5.2184092536        6.2949225170        7.4003980339
  O        -3.5215502414        5.2331222329        6.7794929280
  O        -3.5956064510        7.4679880815        7.3184340370
  C        -6.2584500423        7.1467273309        4.0778865765
  H        -7.2018864753        7.1620259062        4.6862261037
  O        -5.8042352338        6.0508881806        3.6277903665
  O        -5.6141473350        8.2227071687        3.8530055117
  C        -9.2670155991        2.9624473135        4.4549609073
  H        -9.7760873251        3.8307467380        4.7753730710
  O        -8.0580447847        3.0137717908        4.1153681461
  O       -10.0869615960        1.9755230626        4.3964141791
  C        -9.5997958208       -3.5202239981        4.2555074891
  H       -10.6284324694       -3.6062117458        4.7363993397
  O        -9.3836198173       -2.7271085544        3.2939504316
  O        -8.6749593009       -4.3055307223        4.7674147240
  C        -5.4063829718       -6.0836320759       -6.1576393485
  H        -6.0390997038       -6.5934387315       -6.8768176703
  O        -5.3157147411       -6.5042627408       -4.9638375967
  O        -4.7997118332       -5.0931497246       -6.6842330004
  C        -7.4812021438       -7.2683192216       -1.8337008205
  H        -7.8430239833       -7.7214409635       -2.7403108931
  O        -6.3847231004       -6.5596142310       -1.8855223803
  O        -8.0870004405       -7.4369608581       -0.7449951352
  C        -9.2637717352       -3.4248031045       -2.1287629167
  H        -9.5435102925       -4.0726156799       -2.9624854104
  O        -8.1685743898       -2.7562864935       -2.2769679175
  O        -9.8293124780       -3.4993302663       -1.0042472880
  C        -6.7198117275       -1.5155721631       -7.0057360974
  H        -7.7266400310       -1.9701098143       -7.1795729881
  O        -6.3208037730       -1.2812141421       -5.7891801227
  O        -6.0546670581       -1.2647410752       -8.0219575549
  C        -1.9610306020        5.6962737072       -7.4797868569
  H        -1.8068881661        6.7616764611       -7.4798700689
  O        -2.4613788677        5.1953402046       -6.4147373301
  O        -1.7592038190        5.0404242691       -8.5376948407
  C        -1.7153677193        9.0065729983       -3.7807068554
  H        -1.3518565997        9.2891789052       -4.8285272378
  O        -1.7735635219        7.7204009534       -3.5311974415
  O        -1.9589811591        9.8892286280       -2.9296575010
  C         2.5176986766        8.6527359013       -4.1276241396
  H         2.7356319561        9.0838176512       -5.0545617483
  O         2.0941304229        7.4607563111       -4.0382054964
  O         2.6632020791        9.4136986823       -3.1567247192
  C         1.7405814703        5.3615037054       -8.2026998584
  H         1.4592813282        6.4433815072       -8.3446733349
  O         2.2712544771        5.0744229803       -7.0359036782
  O         1.5374971892        4.4786315137       -9.0204193621
  C         9.4791869119        2.6134878200        3.9079418032
  H         9.6264681644        3.4611325178        4.5867541287
  O         8.5294682966        2.7206869475        3.0468687327
  O        10.1884170796        1.5361363159        4.0354546634
  C         6.6320899766        7.0427804887        3.3240585285
  H         7.5183451153        7.1103565644        4.0025867163
  O         6.4921259472        6.1579139584        2.4473334656
  O         5.8014508194        7.8970951585        3.5804466065
  C         4.7468288793        5.8510846562        6.9391041765
  H         5.6837062732        5.7110173508        7.4566454645
  O         4.3315486404        4.9881730889        6.0840680113
  O         4.1390624477        6.9214380767        7.1338855679
  C         7.5642974957        1.7429307679        7.1823006621
  H         8.1116275708        2.6102062210        7.6466333920
  O         6.7423080014        2.0330978891        6.2208765696
  O         7.8434776238        0.5800715711        7.5931108165
     227
 i =        1, time =        1.000, E =        13.8420840721
 Cd        -8.6192528820        0.4794617350        3.4774751344
 Cd        -5.8722286081       -0.2570151369        7.1141126257
 Cd        -8.4082684202       -2.1545412458        0.3849526070
 Cd        -6.8924671777       -3.2914447377        3.9611503738
 Cd        -3.6902356266       -3.7007854012        7.3820444106
 Cd        -6.4421785699       -6.2356424006        0.4643546904
 Cd        -4.3122580259       -6.8294285102        3.9057558256
 Cd        -6.1166289013        3.8608837836        2.9062228777
 Cd        -3.6070513028        2.8814029556        6.5900161649
 Cd        -6.7533963918        1.1873321504       -0.3192572931
 Cd        -4.0446705935        0.0755115203        3.0500364758
 Cd        -1.7741961216       -0.3130256027        6.8333726128
 Cd        -6.3662458821       -1.4633958098       -3.4401659788
 Cd        -4.3617772838       -3.1215312649       -0.1744262565
 Cd        -2.2425398343       -3.6220832859        3.6335433016
 Cd         0.1782373331       -3.9617988476        7.0369415166
 Cd        -4.2697279776       -5.9876064396       -2.9988785699
 Cd        -2.2493307142       -6.7962962333        0.6789348021
 Cd         0.0675474250       -7.3034346280        3.8544372951
 Cd        -4.0797747086        7.4118257393        2.4189512504
 Cd        -1.6112458024        6.4884281460        6.2505166227
 Cd        -4.3324902767        4.8129867402       -0.6768778262
 Cd        -1.8303865102        3.6698359653        3.1587030928
 Cd         0.4898265942        3.1634667999        6.7201968549
 Cd        -4.5989652746        2.0001887890       -4.0894657515
 Cd        -2.1630860855        1.0184525508       -0.4517040888
 Cd         0.1383642738       -0.0678923385        3.1343240564
 Cd         2.6424222993       -0.6634394773        6.8955398503
 Cd        -4.1541318956       -0.5350411226       -6.9611069511
 Cd        -2.2032684240       -1.8488363034       -3.4903131439
 Cd         0.0357507528       -2.8475240636       -0.0251277574
 Cd         2.4398554312       -3.8221186818        3.5302925525
 Cd         4.5938491960       -4.2153011178        6.5947238308
 Cd        -2.6320467901       -4.5696752406       -6.0784336214
 Cd        -0.3608141657       -6.1206014830       -3.0632173428
 Cd         1.9866397421       -6.8522047057       -0.0373188118
 Cd         4.3579783559       -7.5041341967        3.0970913245
 Cd        -2.4315770078        8.2870240055       -1.2006135168
 Cd         0.1211381383        6.7913746603        2.0740819400
 Cd         2.2582645571        6.3881304625        5.9817687792
 Cd        -2.2736980512        5.5408739542       -4.1123144708
 Cd         0.1544285759        4.6149084506       -0.9820194566
 Cd         2.6163182046        3.7538113373        2.4616958955
 Cd         4.3940335030        2.5015834595        5.6450745130
 Cd        -2.3859945917        3.0934573261       -7.5401228573
 Cd        -0.1312175811        1.7709776807       -4.3472896846
 Cd         2.1530276284        0.8602843011       -0.9631819292
 Cd         4.3038085250       -0.4401607935        2.5253822666
 Cd         6.4920004556       -0.6515352636        6.0109738489
 Cd         0.4036763559       -0.5928908204       -7.0623945793
 Cd         2.1511246824       -1.8413804931       -3.9632974715
 Cd         4.1300678833       -2.9778573265       -0.5482665553
 Cd         6.9197839820       -3.7967148564        2.8861660065
 Cd         1.0696775515       -4.7686083111       -6.7910069671
 Cd         3.6507314944       -5.7624251528       -3.6174441505
 Cd         5.7325122714       -6.5635762420       -0.3325772628
 Cd         2.4544774778        8.1226443249       -1.1567480677
 Cd         4.4056074494        7.2900121597        1.7947119505
 Cd         2.3803942563        5.2451408373       -4.8083063710
 Cd         4.8185899920        4.7186869977       -1.4278886507
 Cd         6.7583170293        3.8403741269        2.0310801195
 Cd         2.6211042177        2.7831563264       -7.7034411966
 Cd         4.8484914556        1.7850515014       -4.5235464342
 Cd         6.7274775590        1.0644139021       -0.9631015733
 Cd         8.8868027899        0.4155153931        2.4350811057
 Cd         4.3615984941       -0.9234971583       -7.7311173266
 Cd         6.7425892690       -1.9757063312       -4.2011032782
 Cd         8.5292978609       -2.6208119673       -0.2526001301
 Se        -9.0559190043        0.2440912047        0.9177000641
 Se        -6.3729590855       -0.6563181449        4.4185614547
 Se        -3.9340101355       -1.3486248487        8.2983741105
 Se        -6.5829888255       -3.7428911210        1.3875891553
 Se        -4.5791003887       -4.2755920629        4.8603999450
 Se        -4.6125062866       -7.7781057297        1.5324627894
 Se        -6.6434744230        3.9856082866        0.4563037715
 Se        -4.0722158177        2.6206952455        3.9149232899
 Se        -1.6326528199        2.0124694631        7.9268721243
 Se        -6.7137559780        0.9841756886       -3.1648380628
 Se        -4.4074973527       -0.2114448436        0.3946892367
 Se        -2.0527312053       -1.1149335888        4.2598352493
 Se         0.4058553268       -1.5660059457        8.0661909500
 Se        -4.4163555394       -3.1308406739       -2.8053215054
 Se        -2.2368735120       -4.0917025685        0.9473264344
 Se         0.1527002238       -4.8124711294        4.4861267397
 Se        -2.4164016679       -7.4222067586       -2.0536879296
 Se        -0.0660968393       -7.8807705516        1.3096662540
 Se        -4.5538964043        7.5952015496       -0.0138365446
 Se        -1.8479774769        6.3637006746        3.5412153775
 Se         0.4039247046        5.8259250842        7.5881199116
 Se        -4.4675793703        4.5544045778       -3.3489955800
 Se        -2.0809031128        3.7150829159        0.3431713122
 Se         0.4986757125        2.6964858653        3.7294390327
 Se         2.7718812612        1.9959820611        7.6274314422
 Se        -4.6147580958        2.0750062288       -6.9051729131
 Se        -2.2792283843        0.8534226017       -3.1262833482
 Se         0.0149772409       -0.1633526645        0.3856127447
 Se         2.3130679026       -1.3180091310        3.9999940633
 Se         4.8636353595       -1.8841676724        7.7367124978
 Se        -2.0694643925       -1.9666120654       -6.4606645234
 Se        -0.0441019451       -3.1605671411       -2.8087495479
 Se         2.2320791051       -4.2317843693        0.7810943075
 Se         4.8364479853       -4.9538276856        4.0968046891
 Se        -0.7552742373       -6.2867186304       -5.8414583182
 Se         1.9250542340       -7.4802742517       -2.6082139845
 Se         4.2591236741       -8.3810262714        0.7356235917
 Se         0.0352900488        7.3691006592       -0.4916289707
 Se         2.3815152700        6.5251831423        3.1438979533
 Se         0.0441808253        4.4288453538       -3.5945290818
 Se         2.5165447716        3.6273556878       -0.0584117534
 Se         4.7734349221        2.4654930824        3.1249443535
 Se         0.0453540393        1.9309609454       -6.9715711186
 Se         2.2763977814        0.7654159840       -3.6572024523
 Se         4.3771976007       -0.2853109118       -0.0188221416
 Se         6.9679436071       -1.1296889110        3.5575406705
 Se         2.2379381818       -2.2692716703       -6.6842144651
 Se         4.3742827586       -3.1974527934       -3.2159640159
 Se         6.4329286992       -4.1119668677        0.4118551676
 Se         4.8536338511        7.5525382875       -0.7466270047
 Se         4.8779822523        4.5492956270       -4.0134926397
 Se         7.0868096004        3.5945214979       -0.6428678760
 Se         4.7836490098        1.5274783846       -7.5556233635
 Se         6.9201843558        0.6111443253       -3.7073393286
 Se         9.1079527366       -0.0622966720       -0.0931815329
  C         6.9966702506       -6.9497957630       -2.8612716031
  H         7.7649322095       -7.1224747738       -3.6684216540
  O         5.8472551731       -6.4687974255       -3.1397108128
  O         7.2943701812       -7.2768423507       -1.6987870352
  C         3.3950855045       -6.2672819691       -6.9491570464
  H         4.3444066225       -6.8936096686       -7.0753272229
  O         3.0194399051       -5.7921032459       -5.7863420693
  O         2.6194533272       -6.1704075831       -7.9252483880
  C         6.3106270886       -2.9078655077       -7.4910058514
  H         7.1299137504       -3.7048862282       -7.4466889051
  O         6.0083680527       -2.3192733682       -6.3513209803
  O         5.9410169360       -2.4758540221       -8.6133786606
  C         8.9774127683       -3.3708896749       -3.4296313940
  H         9.9250180562       -3.8774829974       -3.1826003730
  O         8.5704268281       -3.4165882862       -4.6050762916
  O         8.2731175487       -2.6981066356       -2.5232481651
  C         9.7980410077       -4.6251877022        2.1809847476
  H        10.6408655401       -5.3318691344        2.3887999993
  O         9.7503974947       -4.1826104594        0.9945617805
  O         9.0335410185       -4.5699592205        3.1879003385
  C        -2.8217177170       -8.8884030453        5.3598599627
  H        -2.4154187803       -9.9024293192        5.4343946394
  O        -1.9861383585       -7.9313862290        5.0433415623
  O        -4.0902511078       -8.7288870170        5.4056815812
  C         2.9969125837       -8.6915855213        5.2874323637
  H         2.6967725338       -9.0398269484        6.2934215078
  O         2.0025375757       -8.3597549437        4.5608545278
  O         4.2225894287       -8.6064043555        4.9247934243
  C         2.8792856649       -5.7053294045        8.2323992281
  H         2.3955873073       -6.3773024893        8.9303283437
  O         2.2225351196       -4.8110061193        7.6178749341
  O         4.1491684909       -5.9059448983        8.1558104961
  C        -2.5347046154       -5.9173520768        8.5219641698
  H        -2.0052498086       -6.7390725628        9.0096019785
  O        -1.9204092177       -5.2607496744        7.5992340917
  O        -3.6521648954       -5.5107214889        8.8946634141
  C        -6.8630607241        2.3027116913        7.3891583095
  H        -7.2086193538        3.3071349018        7.3885257928
  O        -5.6241736806        2.1598188223        7.5353659192
  O        -7.6711164787        1.3718258670        7.2004010962
  C        -4.1170079645        6.2827825080        7.2281580649
  H        -5.2418933127        6.2896177269        7.3832000201
  O        -3.5293503520        5.2303729399        6.7750225008
  O        -3.5923819555        7.4679553070        7.3187331372
  C        -6.2567265948        7.1462137753        4.0781050308
  H        -7.2111390447        7.1649409639        4.6689854642
  O        -5.8096401430        6.0507631064        3.6297870813
  O        -5.6163798170        8.2226128058        3.8521723262
  C        -9.2741835047        2.9617361914        4.4604884471
  H        -9.7855372140        3.8838940690        4.7760086716
  O        -8.0603223589        3.0118614628        4.1204051549
  O       -10.0838671086        1.9821314906        4.3940513376
  C        -9.6032546307       -3.5282060325        4.2551521008
  H       -10.5971720209       -3.6001750875        4.7566807035
  O        -9.3847554471       -2.7228048439        3.2947455599
  O        -8.6845572779       -4.3050140683        4.7657154345
  C        -5.4081387618       -6.0792097294       -6.1561687045
  H        -6.0546960796       -6.5859836395       -6.8890942905
  O        -5.3130714436       -6.5050922647       -4.9690260947
  O        -4.8019656256       -5.0936332431       -6.6862890181
  C        -7.4874781261       -7.2705344487       -1.8348007139
  H        -7.8388434959       -7.7173330376       -2.7530342297
  O        -6.3902606656       -6.5557372228       -1.8862668844
  O        -8.0735718853       -7.4422297075       -0.7472206168
  C        -9.2562428334       -3.4270114671       -2.1219645136
  H        -9.5270787848       -4.0663584857       -2.9594189931
  O        -8.1710282491       -2.7561597785       -2.2724662463
  O        -9.8255827936       -3.4952194890       -1.0105711285
  C        -6.7206957661       -1.5101673961       -7.0045752777
  H        -7.7450574417       -1.9674181007       -7.1698505571
  O        -6.3204777220       -1.2789542696       -5.8023074426
  O        -6.0667648959       -1.2650382462       -8.0174478803
  C        -1.9628827983        5.6954844548       -7.4852938628
  H        -1.7770888886        6.7764005651       -7.4923242406
  O        -2.4612939520        5.1888260969       -6.4111953031
  O        -1.7552025678        5.0445487267       -8.5304424400
  C        -1.7168688889        9.0074822303       -3.7839166132
  H        -1.3493405476        9.2660238074       -4.8465614694
  O        -1.7694389501        7.7231530615       -3.5256666349
  O        -1.9633906084        9.8910450735       -2.9424321737
  C         2.5062190945        8.6538643678       -4.1272910728
  H         2.7131102182        9.0638249498       -5.0476060874
  O         2.0943108567        7.4562799692       -4.0300862161
  O         2.6627334496        9.4126245693       -3.1574560743
  C         1.7411302942        5.3672397234       -8.1968448598
  H         1.4358383610        6.4416008070       -8.3632925476
  O         2.2776426968        5.0783743517       -7.0461544079
  O         1.5305856628        4.4853595850       -9.0191189878
  C         9.4768439415        2.6096230983        3.9000102204
  H         9.6131090334        3.4671477718        4.5843902861
  O         8.5306648305        2.7178080533        3.0513233428
  O        10.1902333544        1.5416286891        4.0351480363
  C         6.6326459125        7.0382756706        3.3282154855
  H         7.5082674956        7.1289998248        4.0070788575
  O         6.4956458833        6.1623107492        2.4477334892
  O         5.7976364531        7.9039026257        3.5835961043
  C         4.7447755005        5.8524700302        6.9353700129
  H         5.7085862008        5.7040540943        7.4370666698
  O         4.3299040678        4.9893032741        6.0818794635
  O         4.1498521613        6.9235841196        7.1395759101
  C         7.5603309323        1.7452823701        7.1878507085
  H         8.1158840311        2.6116602203        7.6593692779
  O         6.7476744007        2.0303438048        6.2252562586
  O         7.8448040926        0.5833345096        7.5907956902
     227
 i =        2, time =        2.000, E =        13.3140718888
 Cd        -8.6166724013        0.4776160690        3.4779949543
 Cd        -5.8735116051       -0.2569373285        7.1125249708
 Cd        -8.4090765474       -2.1567666476        0.3825666054
 Cd        -6.8887228539       -3.2925260540        3.9623884159