     227
 i =        0, time =        0.000, E =        -8.1974144317
 Cd        -8.6216924880        0.4810107428        3.4775887729
 Cd        -5.8723589632       -0.2566559957        7.1151373767
 Cd        -8.4076147924       -2.1531404527        0.3867588804
 Cd        -6.8957642261       -3.2896665849        3.9600318291
 Cd        -3.6930098048       -3.6992689615        7.3819491709
 Cd        -6.4429261463       -6.2347087238        0.4622469067
 Cd        -4.3123952394       -6.8285875372        3.9039095072
 Cd        -6.1141073353        3.8626235599        2.9066844924
 Cd        -3.6048790416        2.8797284733        6.5917986711
 Cd        -6.7531255596        1.1841266196       -0.3182182747
 Cd        -4.0437606329        0.0729837467        3.0511954168
 Cd        -1.7753257667       -0.3121054857        6.8316599018
 Cd        -6.3661028473       -1.4630135273       -3.4383357626
 Cd        -4.3602814436       -3.1214810613       -0.1759283953
 Cd        -2.2424276819       -3.6242998489        3.6335413818
 Cd         0.1757294635       -3.9625201566        7.0364714760
 Cd        -4.2692200317       -5.9860442556       -3.0005266361
 Cd        -2.2482225396       -6.7972628816        0.6786391664
 Cd         0.0669003827       -7.3030327295        3.8545421700
 Cd        -4.0792754193        7.4105475565        2.4175118797
 Cd        -1.6116442377        6.4880648240        6.2478272306
 Cd        -4.3308002626        4.8127262164       -0.6762739309
 Cd        -1.8326132452        3.6694977750        3.1598212265
 Cd         0.4939817277        3.1637060931        6.7202662426
 Cd        -4.5980154021        1.9988297698       -4.0880170010
 Cd        -2.1651194586        1.0165564496       -0.4536921834
 Cd         0.1376109507       -0.0659106884        3.1336818174
 Cd         2.6419074521       -0.6636939286        6.8958319365
 Cd        -4.1515129292       -0.5348426091       -6.9620217917
 Cd        -2.2012490343       -1.8491984656       -3.4894107829
 Cd         0.0359311218       -2.8494155653       -0.0264680683
 Cd         2.4407298775       -3.8224684908        3.5289587884
 Cd         4.5907434619       -4.2169180472        6.5928471603
 Cd        -2.6321953796       -4.5685798778       -6.0773989300
 Cd        -0.3638438279       -6.1221236347       -3.0620735359
 Cd         1.9882729153       -6.8506852632       -0.0376753302
 Cd         4.3604701588       -7.5063202656        3.0981086138
 Cd        -2.4313710890        8.2839908015       -1.2010761441
 Cd         0.1210964618        6.7915494583        2.0748938605
 Cd         2.2602783261        6.3879934074        5.9824457591
 Cd        -2.2743307721        5.5403016700       -4.1096429978
 Cd         0.1552258413        4.6164378819       -0.9814446932
 Cd         2.6173372932        3.7540356816        2.4616712460
 Cd         4.3934694910        2.5024270436        5.6448470259
 Cd        -2.3839877703        3.0961459608       -7.5397423510
 Cd        -0.1308699873        1.7716472388       -4.3458913396
 Cd         2.1522040622        0.8595996928       -0.9600505658
 Cd         4.3027041934       -0.4425155449        2.5248589789
 Cd         6.4943132815       -0.6514444341        6.0110723312
 Cd         0.4032906214       -0.5920449882       -7.0625722312
 Cd         2.1504065746       -1.8410095193       -3.9631978812
 Cd         4.1282053355       -2.9764966895       -0.5499119195
 Cd         6.9189885741       -3.8001688729        2.8840486736
 Cd         1.0693858855       -4.7693596381       -6.7909688629
 Cd         3.6529341800       -5.7620820022       -3.6150795142
 Cd         5.7341856059       -6.5625995016       -0.3323817960
 Cd         2.4532379782        8.1225833618       -1.1556872380
 Cd         4.4025673150        7.2904811152        1.7928276254
 Cd         2.3800547108        5.2453457502       -4.8107637235
 Cd         4.8184663347        4.7191125514       -1.4277792117
 Cd         6.7589411702        3.8390778732        2.0295448973
 Cd         2.6210634084        2.7844913241       -7.7035228004
 Cd         4.8495943395        1.7843685348       -4.5225056138
 Cd         6.7261500983        1.0662237140       -0.9642295531
 Cd         8.8881450478        0.4141445330        2.4369093904
 Cd         4.3615782352       -0.9213178924       -7.7328888960
 Cd         6.7438649008       -1.9767569930       -4.2031112584
 Cd         8.5272445020       -2.6218905711       -0.2551455218
 Se        -9.0557725106        0.2424574140        0.9180313808
 Se        -6.3745872764       -0.6570220647        4.4225742627
 Se        -3.9358548519       -1.3506397678        8.2925868769
 Se        -6.5830028390       -3.7408669090        1.3890860046
 Se        -4.5802302415       -4.2716541219        4.8585926421
 Se        -4.6110671623       -7.7792240778        1.5343213278
 Se        -6.6407812351        3.9866809498        0.4586064126
 Se        -4.0705866514        2.6241591830        3.9150270775
 Se        -1.6315747320        2.0143859544        7.9219454430
 Se        -6.7106235468        0.9827493806       -3.1628202938
 Se        -4.4077684895       -0.2106461950        0.3970531668
 Se        -2.0534879979       -1.1190641497        4.2604482105
 Se         0.4069246601       -1.5676855049        8.0617057342
 Se        -4.4126107232       -3.1307459794       -2.8028288282
 Se        -2.2371864822       -4.0884616040        0.9473336128
 Se         0.1541797359       -4.8148952714        4.4843326207
 Se        -2.4147106009       -7.4199706225       -2.0529393442
 Se        -0.0662571417       -7.8800811154        1.3078284855
 Se        -4.5519687636        7.5920037884       -0.0122560791
 Se        -1.8482840651        6.3647212661        3.5390459072
 Se         0.4006735392        5.8241498358        7.5878867146
 Se        -4.4655945585        4.5529209660       -3.3484418515
 Se        -2.0798083538        3.7153034916        0.3451575142
 Se         0.4973892782        2.6967113851        3.7286137790
 Se         2.7724753484        1.9958260876        7.6298945277
 Se        -4.6126224962        2.0736182894       -6.9031574659
 Se        -2.2770211290        0.8531533747       -3.1284312065
 Se         0.0138865169       -0.1636477002        0.3858468104
 Se         2.3115473387       -1.3198431962        4.0017354986
 Se         4.8624545925       -1.8855864388        7.7371297607
 Se        -2.0700877949       -1.9675257511       -6.4603372509
 Se        -0.0447057629       -3.1582708631       -2.8090856920
 Se         2.2343306950       -4.2299664240        0.7817840723
 Se         4.8342987615       -4.9516929708        4.0974643468
 Se        -0.7556003326       -6.2829108386       -5.8406699955
 Se         1.9243057511       -7.4784768035       -2.6074198353
 Se         4.2543989663       -8.3809591814        0.7363809319
 Se         0.0386925703        7.3677075300       -0.4939635450
 Se         2.3791568525        6.5289221229        3.1400383851
 Se         0.0465974103        4.4270318221       -3.5936563407
 Se         2.5167269427        3.6273521599       -0.0581806204
 Se         4.7705604635        2.4670139639        3.1233546104
 Se         0.0435933033        1.9323944164       -6.9695738842
 Se         2.2733127965        0.7623703678       -3.6584263160
 Se         4.3816175435       -0.2841549253       -0.0177063702
 Se         6.9670500347       -1.1290204494        3.5565582379
 Se         2.2410869402       -2.2702007814       -6.6798205275
 Se         4.3723294721       -3.1971869108       -3.2130677403
 Se         6.4331938555       -4.1098532443        0.4136420186
 Se         4.8503033307        7.5509093293       -0.7463548497
 Se         4.8776288797        4.5477652435       -4.0091414448
 Se         7.0830986217        3.5950723552       -0.6434567968
 Se         4.7810064642        1.5273410534       -7.5566303287
 Se         6.9188050062        0.6130038217       -3.7081238627
 Se         9.1066871843       -0.0609359671       -0.0919647969
  C         6.9955771113       -6.9586634775       -2.8583426301
  H         7.7780160969       -7.1271873265       -3.6573399650
  O         5.8389952916       -6.4652991204       -3.1445809228
  O         7.2920676004       -7.2683568805       -1.6893132711
  C         3.3939431960       -6.2668607509       -6.9513074648
  H         4.3245440932       -6.8689211647       -7.0591687882
  O         3.0202466073       -5.7860511295       -5.7843136273
  O         2.6220129789       -6.1746538788       -7.9242101403
  C         6.3116555909       -2.9071154185       -7.4921130606
  H         7.0978863851       -3.7212906458       -7.4285512081
  O         6.0096715894       -2.3219711192       -6.3505932827
  O         5.9403243477       -2.4750431756       -8.6116316973
  C         8.9837561036       -3.3697375837       -3.4349055328
  H         9.9249943929       -3.8864043165       -3.1840078659
  O         8.5659407989       -3.4209184445       -4.6048832464
  O         8.2714489672       -2.6971151254       -2.5207012617
  C         9.7902109758       -4.6282247391        2.1768529346
  H        10.6284324694       -5.3337138149        2.3552924638
  O         9.7484501532       -4.1824896055        0.9942458601
  O         9.0219926648       -4.5705851174        3.1873629795
  C        -2.8252708508       -8.8894178348        5.3653894160
  H        -2.3915771747       -9.8892286280        5.4446685031
  O        -1.9808601030       -7.9304545651        5.0436955975
  O        -4.0908415257       -8.7280019527        5.4030844137
  C         3.0047406823       -8.6887063298        5.2919739424
  H         2.6853413808       -9.0312323512        6.2714246943
  O         1.9985977812       -8.3553887881        4.5599054594
  O         4.2197147413       -8.6069092298        4.9235206312
  C         2.8732291572       -5.7090624943        8.2322507888
  H         2.4095730423       -6.3582442170        8.9295273658
  O         2.2236878889       -4.8031284854        7.6183804854
  O         4.1525405945       -5.8988692439        8.1468427445
  C        -2.5324052264       -5.9090323801        8.5168983878
  H        -2.0058427467       -6.7599986745        9.0204193621
  O        -1.9189018681       -5.2527647032        7.5983339134
  O        -3.6521974131       -5.4981014961        8.8936623702
  C        -6.8661340661        2.3082426882        7.3884767521
  H        -7.2433530482        3.2983326111        7.3747512577
  O        -5.6189307919        2.1553364867        7.5292857639
  O        -7.6694328727        1.3672322100        7.2032576312
  C        -4.1128935570        6.2776012356        7.2258109093
  H        -5.2184092536        6.2949225170        7.4003980339
  O        -3.5215502414        5.2331222329        6.7794929280
  O        -3.5956064510        7.4679880815        7.3184340370
  C        -6.2584500423        7.1467273309        4.0778865765
  H        -7.2018864753        7.1620259062        4.6862261037
  O        -5.8042352338        6.0508881806        3.6277903665
  O        -5.6141473350        8.2227071687        3.8530055117
  C        -9.2670155991        2.9624473135        4.4549609073
  H        -9.7760873251        3.8307467380        4.7753730710
  O        -8.0580447847        3.0137717908        4.1153681461
  O       -10.0869615960        1.9755230626        4.3964141791
  C        -9.5997958208       -3.5202239981        4.2555074891
  H       -10.6284324694       -3.6062117458        4.7363993397
  O        -9.3836198173       -2.7271085544        3.2939504316
  O        -8.6749593009       -4.3055307223        4.7674147240
  C        -5.4063829718       -6.0836320759       -6.1576393485
  H        -6.0390997038       -6.5934387315       -6.8768176703
  O        -5.3157147411       -6.5042627408       -4.9638375967
  O        -4.7997118332       -5.0931497246       -6.6842330004
  C        -7.4812021438       -7.2683192216       -1.8337008205
  H        -7.8430239833       -7.7214409635       -2.7403108931
  O        -6.3847231004       -6.5596142310       -1.8855223803
  O        -8.0870004405       -7.4369608581       -0.7449951352
  C        -9.2637717352       -3.4248031045       -2.1287629167
  H        -9.5435102925       -4.0726156799       -2.9624854104
  O        -8.1685743898       -2.7562864935       -2.2769679175
  O        -9.8293124780       -3.4993302663       -1.0042472880
  C        -6.7198117275       -1.5155721631       -7.0057360974
  H        -7.7266400310       -1.9701098143       -7.1795729881
  O        -6.3208037730       -1.2812141421       -5.7891801227
  O        -6.0546670581       -1.2647410752       -8.0219575549
  C        -1.9610306020        5.6962737072       -7.4797868569
  H        -1.8068881661        6.7616764611       -7.4798700689
  O        -2.4613788677        5.1953402046       -6.4147373301
  O        -1.7592038190        5.0404242691       -8.5376948407
  C        -1.7153677193        9.0065729983       -3.7807068554
  H        -1.3518565997        9.2891789052       -4.8285272378
  O        -1.7735635219        7.7204009534       -3.5311974415
  O        -1.9589811591        9.8892286280       -2.9296575010
  C         2.5176986766        8.6527359013       -4.1276241396
  H         2.7356319561        9.0838176512       -5.0545617483
  O         2.0941304229        7.4607563111       -4.0382054964
  O         2.6632020791        9.4136986823       -3.1567247192
  C         1.7405814703        5.3615037054       -8.2026998584
  H         1.4592813282        6.4433815072       -8.3446733349
  O         2.2712544771        5.0744229803       -7.0359036782
  O         1.5374971892        4.4786315137       -9.0204193621
  C         9.4791869119        2.6134878200        3.9079418032
  H         9.6264681644        3.4611325178        4.5867541287
  O         8.5294682966        2.7206869475        3.0468687327
  O        10.1884170796        1.5361363159        4.0354546634
  C         6.6320899766        7.0427804887        3.3240585285
  H         7.5183451153        7.1103565644        4.0025867163
  O         6.4921259472        6.1579139584        2.4473334656
  O         5.8014508194        7.8970951585        3.5804466065
  C         4.7468288793        5.8510846562        6.9391041765
  H         5.6837062732        5.7110173508        7.4566454645
  O         4.3315486404        4.9881730889        6.0840680113
  O         4.1390624477        6.9214380767        7.1338855679
  C         7.5642974957        1.7429307679        7.1823006621
  H         8.1116275708        2.6102062210        7.6466333920
  O         6.7423080014        2.0330978891        6.2208765696
  O         7.8434776238        0.5800715711        7.5931108165
     227
 i =        1, time =        1.000, E =        -8.2241234488
 Cd        -8.6193161560        0.4795950276        3.4772670198
 Cd        -5.8717585215       -0.2571238802        7.1143075215
 Cd        -8.4082439412       -2.1542699560        0.3851397852
 Cd        -6.8926524112       -3.2916918167        3.9611115574
 Cd        -3.6901944393       -3.7005259282        7.3822829345
 Cd        -6.4420454017       -6.2357283990        0.4642894879
 Cd        -4.3123200270       -6.8295700898        3.9053944440
 Cd        -6.1164674511        3.8609197032        2.9057789339
 Cd        -3.6067664554        2.8812894574        6.5902903878
 Cd        -6.7534237512        1.1872703317       -0.3192364812
 Cd        -4.0445074719        0.0755171801        3.0501411355
 Cd        -1.7741880660       -0.3127196535        6.8335278073
 Cd        -6.3661503804       -1.4627418716       -3.4401766033
 Cd        -4.3614895183       -3.1217031617       -0.1745112407
 Cd        -2.2425906701       -3.6217333075        3.6335916864
 Cd         0.1785606865       -3.9616607393        7.0369441121
 Cd        -4.2694968697       -5.9880385845       -2.9988728891
 Cd        -2.2489057377       -6.7965277161        0.6790874551
 Cd         0.0677127256       -7.3031403506        3.8542994397
 Cd        -4.0801422233        7.4118965238        2.4184928439
 Cd        -1.6109448663        6.4880859217        6.2508302104
 Cd        -4.3325287234        4.8128675329       -0.6769326457
 Cd        -1.8303979523        3.6696756692        3.1588652593
 Cd         0.4898127655        3.1633776160        6.7204387674
 Cd        -4.5994268236        2.0001425844       -4.0891577541
 Cd        -2.1629614470        1.0182317174       -0.4517422285
 Cd         0.1384111651       -0.0680819938        3.1343903899
 Cd         2.6424347767       -0.6635219913        6.8958014420
 Cd        -4.1541141454       -0.5351177797       -6.9611241525
 Cd        -2.2032116253       -1.8490171442       -3.4901207213
 Cd         0.0357889026       -2.8475068707       -0.0251093219
 Cd         2.4397572809       -3.8217381419        3.5304111192
 Cd         4.5938348799       -4.2152371867        6.5947052841
 Cd        -2.6318137706       -4.5698865078       -6.0785150912
 Cd        -0.3609176560       -6.1209287120       -3.0631646947
 Cd         1.9864792465       -6.8523122467       -0.0374172238
 Cd         4.3578992576       -7.5047618719        3.0973097907
 Cd        -2.4318982737        8.2868251652       -1.2004547144
 Cd         0.1211433275        6.7912204804        2.0745631438
 Cd         2.2581697772        6.3879968894        5.9823758484
 Cd        -2.2739293473        5.5406563026       -4.1121938832
 Cd         0.1544479887        4.6148844430       -0.9822444952
 Cd         2.6164599035        3.7534993638        2.4612427082
 Cd         4.3939682247        2.5015559831        5.6448239801
 Cd        -2.3863230639        3.0936519453       -7.5399646763
 Cd        -0.1312481815        1.7709494662       -4.3473809657
 Cd         2.1531352785        0.8601088122       -0.9631997464
 Cd         4.3035854423       -0.4402223065        2.5249931292
 Cd         6.4920272479       -0.6516929003        6.0106543362
 Cd         0.4040714172       -0.5928169726       -7.0622159647
 Cd         2.1512612337       -1.8411928948       -3.9633266769
 Cd         4.1300163778       -2.9779710402       -0.5482465499
 Cd         6.9198152793       -3.7968944089        2.8857330838
 Cd         1.0696140142       -4.7690255661       -6.7907770274
 Cd         3.6506716715       -5.7624940560       -3.6176381639
 Cd         5.7328303500       -6.5638862946       -0.3327236373
 Cd         2.4549148633        8.1224137074       -1.1566777854
 Cd         4.4054497800        7.2898620170        1.7947998290
 Cd         2.3804034401        5.2452003016       -4.8085926275
 Cd         4.8188661377        4.7185338620       -1.4282479428
 Cd         6.7582683720        3.8402247955        2.0311254357
 Cd         2.6215708825        2.7830035549       -7.7034006089
 Cd         4.8490797827        1.7847961069       -4.5232644369
 Cd         6.7276537771        1.0648249075       -0.9631151293
 Cd         8.8867639320        0.4155683695        2.4348904614
 Cd         4.3617537056       -0.9229102688       -7.7309795322
 Cd         6.7427260013       -1.9756539623       -4.2012179407
 Cd         8.5291869088       -2.6208111887       -0.2527393457
 Se        -9.0551112286        0.2432516426        0.9181287514
 Se        -6.3728208819       -0.6564417925        4.4183866868
 Se        -3.9343690776       -1.3488524447        8.2970868174
 Se        -6.5830752426       -3.7426466468        1.3879161395
 Se        -4.5790672320       -4.2750871159        4.8599422253
 Se        -4.6123155832       -7.7770326893        1.5327275805
 Se        -6.6426223912        3.9855612771        0.4572620558
 Se        -4.0720251853        2.6207988580        3.9144905125
 Se        -1.6331107615        2.0119747504        7.9256350894
 Se        -6.7123144362        0.9832889480       -3.1652526844
 Se        -4.4071947722       -0.2112675162        0.3948376208
 Se        -2.0529982843       -1.1152110776        4.2595191348
 Se         0.4059547850       -1.5661221331        8.0653958836
 Se        -4.4161492721       -3.1302526786       -2.8048688316
 Se        -2.2372593562       -4.0916173542        0.9472447967
 Se         0.1529436662       -4.8126577731        4.4859023220
 Se        -2.4165150496       -7.4210823594       -2.0538688031
 Se        -0.0666799201       -7.8796238408        1.3095942391
 Se        -4.5526570941        7.5949440637       -0.0129867740
 Se        -1.8471366813        6.3634219214        3.5404315014
 Se         0.4037718136        5.8260841387        7.5865514064
 Se        -4.4664966039        4.5540936724       -3.3489580120
 Se        -2.0809463473        3.7151921881        0.3431674171
 Se         0.4983599562        2.6968405953        3.7289147497
 Se         2.7718166178        1.9958980206        7.6265530749
 Se        -4.6136493107        2.0748224982       -6.9049827029
 Se        -2.2789852831        0.8534769455       -3.1261590338
 Se         0.0146906543       -0.1632674397        0.3854666442
 Se         2.3130067483       -1.3186266187        3.9993117351
 Se         4.8633012920       -1.8842638272        7.7357816250
 Se        -2.0699745285       -1.9664751223       -6.4604567562
 Se        -0.0445294382       -3.1601188281       -2.8087720473
 Se         2.2322431707       -4.2315472689        0.7809820401
 Se         4.8362965719       -4.9533164067        4.0967485373
 Se        -0.7551873108       -6.2853861592       -5.8414087846
 Se         1.9250211854       -7.4793906717       -2.6078017360
 Se         4.2592901998       -8.3797348222        0.7361671988
 Se         0.0355366117        7.3687575297       -0.4914057458
 Se         2.3811002348        6.5252004119        3.1429170378
 Se         0.0438658286        4.4288222261       -3.5941626198
 Se         2.5164213440        3.6274163052       -0.0573393630
 Se         4.7729243313        2.4659655407        3.1252122751
 Se         0.0454681669        1.9302577097       -6.9708296051
 Se         2.2759911329        0.7650110135       -3.6570951366
 Se         4.3768104330       -0.2853546984       -0.0181195118
 Se         6.9677734903       -1.1295245117        3.5580206313
 Se         2.2372734502       -2.2685086222       -6.6839025931
 Se         4.3738861020       -3.1974740917       -3.2157414801
 Se         6.4330729747       -4.1117708242        0.4126279450
 Se         4.8521747271        7.5524439730       -0.7461183782
 Se         4.8776068357        4.5490671115       -4.0126200702
 Se         7.0859472568        3.5937867141       -0.6428637197
 Se         4.7822838650        1.5267490571       -7.5555626843
 Se         6.9190424657        0.6111894184       -3.7073449012
 Se         9.1071901446       -0.0625860119       -0.0925787950
  C         6.9966702506       -6.9497957630       -2.8612716031
  H         7.7649322095       -7.1224747738       -3.6684216540
  O         5.8449468553       -6.4676870337       -3.1399235927
  O         7.2903150102       -7.2749460721       -1.6952005278
  C         3.3950855045       -6.2672819691       -6.9491570464
  H         4.3444066225       -6.8936096686       -7.0753272229
  O         3.0189692490       -5.7912038686       -5.7833097730
  O         2.6182005047       -6.1693108338       -7.9243308463
  C         6.3106270886       -2.9078655077       -7.4910058514
  H         7.1299137504       -3.7048862282       -7.4466889051
  O         6.0084424147       -2.3184795200       -6.3486240932
  O         5.9398091746       -2.4746886765       -8.6127066943
  C         8.9774127683       -3.3708896749       -3.4296313940
  H         9.9250180562       -3.8774829974       -3.1826003730
  O         8.5688732879       -3.4153598993       -4.6047295978
  O         8.2720938747       -2.6971178563       -2.5210256423
  C         9.7980410077       -4.6251877022        2.1809847476
  H        10.6408655401       -5.3318691344        2.3887999993
  O         9.7480564326       -4.1810987218        0.9931925957
  O         9.0300519267       -4.5686567856        3.1872927823
  C        -2.8217177170       -8.8884030453        5.3598599627
  H        -2.4154187803       -9.9024293192        5.4343946394
  O        -1.9851654420       -7.9308189870        5.0425874787
  O        -4.0903901901       -8.7278066087        5.4047567701
  C         2.9969125837       -8.6915855213        5.2874323637
  H         2.6967725338       -9.0398269484        6.2934215078
  O         2.0003239177       -8.3583908864        4.5598284172
  O         4.2231158515       -8.6023778687        4.9183861225
  C         2.8792856649       -5.7053294045        8.2323992281
  H         2.3955873073       -6.3773024893        8.9303283437
  O         2.2200871843       -4.8094670337        7.6167478439
  O         4.1496275680       -5.9041871609        8.1542123574
  C        -2.5347046154       -5.9173520768        8.5219641698
  H        -2.0052498086       -6.7390725628        9.0096019785
  O        -1.9210970402       -5.2589984158        7.5985777189
  O        -3.6522146002       -5.5090648357        8.8932854069
  C        -6.8630607241        2.3027116913        7.3891583095
  H        -7.2086193538        3.3071349018        7.3885257928
  O        -5.6221477429        2.1592785389        7.5341607649
  O        -7.6699596611        1.3706952844        7.2000720578
  C        -4.1170079645        6.2827825080        7.2281580649
  H        -5.2418933127        6.2896177269        7.3832000201
  O        -3.5274447444        5.2294206986        6.7741561117
  O        -3.5914151526        7.4674806937        7.3182076643
  C        -6.2567265948        7.1462137753        4.0781050308
  H        -7.2111390447        7.1649409639        4.6689854642
  O        -5.8091678661        6.0487411301        3.6284271199
  O        -5.6138253748        8.2212633387        3.8497577962
  C        -9.2741835047        2.9617361914        4.4604884471
  H        -9.7855372140        3.8838940690        4.7760086716
  O        -8.0592324539        3.0118545280        4.1195878620
  O       -10.0819007810        1.9801092709        4.3927507024
  C        -9.6032546307       -3.5282060325        4.2551521008
  H       -10.5971720209       -3.6001750875        4.7566807035
  O        -9.3836376279       -2.7227683235        3.2944090145
  O        -8.6804161063       -4.3026932270        4.7638153648
  C        -5.4081387618       -6.0792097294       -6.1561687045
  H        -6.0546960796       -6.5859836395       -6.8890942905
  O        -5.3116127268       -6.5043498421       -4.9663455684
  O        -4.7994472545       -5.0929927840       -6.6855695728
  C        -7.4874781261       -7.2705344487       -1.8348007139
  H        -7.8388434959       -7.7173330376       -2.7530342297
  O        -6.3891590879       -6.5551697734       -1.8848634380
  O        -8.0722091356       -7.4412665578       -0.7462179203
  C        -9.2562428334       -3.4270114671       -2.1219645136
  H        -9.5270787848       -4.0663584857       -2.9594189931
  O        -8.1701396485       -2.7556005338       -2.2725939274
  O        -9.8245787043       -3.4943172033       -1.0095927399
  C        -6.7206957661       -1.5101673961       -7.0045752777
  H        -7.7450574417       -1.9674181007       -7.1698505571
  O        -6.3199431418       -1.2783759806       -5.8000002373
  O        -6.0643175778       -1.2639476156       -8.0160727366
  C        -1.9628827983        5.6954844548       -7.4852938628
  H        -1.7770888886        6.7764005651       -7.4923242406
  O        -2.4611861062        5.1873108732       -6.4094543872
  O        -1.7560402216        5.0416394306       -8.5289513996
  C        -1.7168688889        9.0074822303       -3.7839166132
  H        -1.3493405476        9.2660238074       -4.8465614694
  O        -1.7698904135        7.7205735305       -3.5248888624
  O        -1.9636495284        9.8899621183       -2.9412682895
  C         2.5062190945        8.6538643678       -4.1272910728
  H         2.7131102182        9.0638249498       -5.0476060874
  O         2.0944135393        7.4541266650       -4.0304965742
  O         2.6627256127        9.4115721337       -3.1558625865
  C         1.7411302942        5.3672397234       -8.1968448598
  H         1.4358383610        6.4416008070       -8.3632925476
  O         2.2779918897        5.0770756782       -7.0423795573
  O         1.5310785444        4.4839135517       -9.0179897316
  C         9.4768439415        2.6096230983        3.9000102204
  H         9.6131090334        3.4671477718        4.5843902861
  O         8.5287824085        2.7174563114        3.0498154998
  O        10.1890128706        1.5405721489        4.0336805002
  C         6.6326459125        7.0382756706        3.3282154855
  H         7.5082674956        7.1289998248        4.0070788575
  O         6.4947693582        6.1609638138        2.4469072467
  O         5.7960921569        7.9032459107        3.5819485493
  C         4.7447755005        5.8524700302        6.9353700129
  H         5.7085862008        5.7040540943        7.4370666698
  O         4.3289262989        4.9887484234        6.0815912996
  O         4.1469180017        6.9227510870        7.1378655916
  C         7.5603309323        1.7452823701        7.1878507085
  H         8.1158840311        2.6116602203        7.6593692779
  O         6.7463591541        2.0302223215        6.2246676907
  O         7.8438621993        0.5824808595        7.5898479378
     227
 i =        2, time =        2.000, E =        -8.2891444655
 Cd        -8.6168974092        0.4781304540        3.4771568099
 Cd        -5.8716510542       -0.2573699688        7.1132946609
 Cd        -8.4089770283       -2.1557082099        0.3833005944
 Cd        -6.8893916459       -3.2934728236        3.9622081470