     227
 i =        0, time =        0.000, E =        12.7635130627
 Cd        -8.6216924880        0.4810107428        3.4775887729
 Cd        -5.8723589632       -0.2566559957        7.1151373767
 Cd        -8.4076147924       -2.1531404527        0.3867588804
 Cd        -6.8957642261       -3.2896665849        3.9600318291
 Cd        -3.6930098048       -3.6992689615        7.3819491709
 Cd        -6.4429261463       -6.2347087238        0.4622469067
 Cd        -4.3123952394       -6.8285875372        3.9039095072
 Cd        -6.1141073353        3.8626235599        2.9066844924
 Cd        -3.6048790416        2.8797284733        6.5917986711
 Cd        -6.7531255596        1.1841266196       -0.3182182747
 Cd        -4.0437606329        0.0729837467        3.0511954168
 Cd        -1.7753257667       -0.3121054857        6.8316599018
 Cd        -6.3661028473       -1.4630135273       -3.4383357626
 Cd        -4.3602814436       -3.1214810613       -0.1759283953
 Cd        -2.2424276819       -3.6242998489        3.6335413818
 Cd         0.1757294635       -3.9625201566        7.0364714760
 Cd        -4.2692200317       -5.9860442556       -3.0005266361
 Cd        -2.2482225396       -6.7972628816        0.6786391664
 Cd         0.0669003827       -7.3030327295        3.8545421700
 Cd        -4.0792754193        7.4105475565        2.4175118797
 Cd        -1.6116442377        6.4880648240        6.2478272306
 Cd        -4.3308002626        4.8127262164       -0.6762739309
 Cd        -1.8326132452        3.6694977750        3.1598212265
 Cd         0.4939817277        3.1637060931        6.7202662426
 Cd        -4.5980154021        1.9988297698       -4.0880170010
 Cd        -2.1651194586        1.0165564496       -0.4536921834
 Cd         0.1376109507       -0.0659106884        3.1336818174
 Cd         2.6419074521       -0.6636939286        6.8958319365
 Cd        -4.1515129292       -0.5348426091       -6.9620217917
 Cd        -2.2012490343       -1.8491984656       -3.4894107829
 Cd         0.0359311218       -2.8494155653       -0.0264680683
 Cd         2.4407298775       -3.8224684908        3.5289587884
 Cd         4.5907434619       -4.2169180472        6.5928471603
 Cd        -2.6321953796       -4.5685798778       -6.0773989300
 Cd        -0.3638438279       -6.1221236347       -3.0620735359
 Cd         1.9882729153       -6.8506852632       -0.0376753302
 Cd         4.3604701588       -7.5063202656        3.0981086138
 Cd        -2.4313710890        8.2839908015       -1.2010761441
 Cd         0.1210964618        6.7915494583        2.0748938605
 Cd         2.2602783261        6.3879934074        5.9824457591
 Cd        -2.2743307721        5.5403016700       -4.1096429978
 Cd         0.1552258413        4.6164378819       -0.9814446932
 Cd         2.6173372932        3.7540356816        2.4616712460
 Cd         4.3934694910        2.5024270436        5.6448470259
 Cd        -2.3839877703        3.0961459608       -7.5397423510
 Cd        -0.1308699873        1.7716472388       -4.3458913396
 Cd         2.1522040622        0.8595996928       -0.9600505658
 Cd         4.3027041934       -0.4425155449        2.5248589789
 Cd         6.4943132815       -0.6514444341        6.0110723312
 Cd         0.4032906214       -0.5920449882       -7.0625722312
 Cd         2.1504065746       -1.8410095193       -3.9631978812
 Cd         4.1282053355       -2.9764966895       -0.5499119195
 Cd         6.9189885741       -3.8001688729        2.8840486736
 Cd         1.0693858855       -4.7693596381       -6.7909688629
 Cd         3.6529341800       -5.7620820022       -3.6150795142
 Cd         5.7341856059       -6.5625995016       -0.3323817960
 Cd         2.4532379782        8.1225833618       -1.1556872380
 Cd         4.4025673150        7.2904811152        1.7928276254
 Cd         2.3800547108        5.2453457502       -4.8107637235
 Cd         4.8184663347        4.7191125514       -1.4277792117
 Cd         6.7589411702        3.8390778732        2.0295448973
 Cd         2.6210634084        2.7844913241       -7.7035228004
 Cd         4.8495943395        1.7843685348       -4.5225056138
 Cd         6.7261500983        1.0662237140       -0.9642295531
 Cd         8.8881450478        0.4141445330        2.4369093904
 Cd         4.3615782352       -0.9213178924       -7.7328888960
 Cd         6.7438649008       -1.9767569930       -4.2031112584
 Cd         8.5272445020       -2.6218905711       -0.2551455218
 Se        -9.0557725106        0.2424574140        0.9180313808
 Se        -6.3745872764       -0.6570220647        4.4225742627
 Se        -3.9358548519       -1.3506397678        8.2925868769
 Se        -6.5830028390       -3.7408669090        1.3890860046
 Se        -4.5802302415       -4.2716541219        4.8585926421
 Se        -4.6110671623       -7.7792240778        1.5343213278
 Se        -6.6407812351        3.9866809498        0.4586064126
 Se        -4.0705866514        2.6241591830        3.9150270775
 Se        -1.6315747320        2.0143859544        7.9219454430
 Se        -6.7106235468        0.9827493806       -3.1628202938
 Se        -4.4077684895       -0.2106461950        0.3970531668
 Se        -2.0534879979       -1.1190641497        4.2604482105
 Se         0.4069246601       -1.5676855049        8.0617057342
 Se        -4.4126107232       -3.1307459794       -2.8028288282
 Se        -2.2371864822       -4.0884616040        0.9473336128
 Se         0.1541797359       -4.8148952714        4.4843326207
 Se        -2.4147106009       -7.4199706225       -2.0529393442
 Se        -0.0662571417       -7.8800811154        1.3078284855
 Se        -4.5519687636        7.5920037884       -0.0122560791
 Se        -1.8482840651        6.3647212661        3.5390459072
 Se         0.4006735392        5.8241498358        7.5878867146
 Se        -4.4655945585        4.5529209660       -3.3484418515
 Se        -2.0798083538        3.7153034916        0.3451575142
 Se         0.4973892782        2.6967113851        3.7286137790
 Se         2.7724753484        1.9958260876        7.6298945277
 Se        -4.6126224962        2.0736182894       -6.9031574659
 Se        -2.2770211290        0.8531533747       -3.1284312065
 Se         0.0138865169       -0.1636477002        0.3858468104
 Se         2.3115473387       -1.3198431962        4.0017354986
 Se         4.8624545925       -1.8855864388        7.7371297607
 Se        -2.0700877949       -1.9675257511       -6.4603372509
 Se        -0.0447057629       -3.1582708631       -2.8090856920
 Se         2.2343306950       -4.2299664240        0.7817840723
 Se         4.8342987615       -4.9516929708        4.0974643468
 Se        -0.7556003326       -6.2829108386       -5.8406699955
 Se         1.9243057511       -7.4784768035       -2.6074198353
 Se         4.2543989663       -8.3809591814        0.7363809319
 Se         0.0386925703        7.3677075300       -0.4939635450
 Se         2.3791568525        6.5289221229        3.1400383851
 Se         0.0465974103        4.4270318221       -3.5936563407
 Se         2.5167269427        3.6273521599       -0.0581806204
 Se         4.7705604635        2.4670139639        3.1233546104
 Se         0.0435933033        1.9323944164       -6.9695738842
 Se         2.2733127965        0.7623703678       -3.6584263160
 Se         4.3816175435       -0.2841549253       -0.0177063702
 Se         6.9670500347       -1.1290204494        3.5565582379
 Se         2.2410869402       -2.2702007814       -6.6798205275
 Se         4.3723294721       -3.1971869108       -3.2130677403
 Se         6.4331938555       -4.1098532443        0.4136420186
 Se         4.8503033307        7.5509093293       -0.7463548497
 Se         4.8776288797        4.5477652435       -4.0091414448
 Se         7.0830986217        3.5950723552       -0.6434567968
 Se         4.7810064642        1.5273410534       -7.5566303287
 Se         6.9188050062        0.6130038217       -3.7081238627
 Se         9.1066871843       -0.0609359671       -0.0919647969
  C         6.9955771113       -6.9586634775       -2.8583426301
  H         7.7780160969       -7.1271873265       -3.6573399650
  O         5.8389952916       -6.4652991204       -3.1445809228
  O         7.2920676004       -7.2683568805       -1.6893132711
  C         3.3939431960       -6.2668607509       -6.9513074648
  H         4.3245440932       -6.8689211647       -7.0591687882
  O         3.0202466073       -5.7860511295       -5.7843136273
  O         2.6220129789       -6.1746538788       -7.9242101403
  C         6.3116555909       -2.9071154185       -7.4921130606
  H         7.0978863851       -3.7212906458       -7.4285512081
  O         6.0096715894       -2.3219711192       -6.3505932827
  O         5.9403243477       -2.4750431756       -8.6116316973
  C         8.9837561036       -3.3697375837       -3.4349055328
  H         9.9249943929       -3.8864043165       -3.1840078659
  O         8.5659407989       -3.4209184445       -4.6048832464
  O         8.2714489672       -2.6971151254       -2.5207012617
  C         9.7902109758       -4.6282247391        2.1768529346
  H        10.6284324694       -5.3337138149        2.3552924638
  O         9.7484501532       -4.1824896055        0.9942458601
  O         9.0219926648       -4.5705851174        3.1873629795
  C        -2.8252708508       -8.8894178348        5.3653894160
  H        -2.3915771747       -9.8892286280        5.4446685031
  O        -1.9808601030       -7.9304545651        5.0436955975
  O        -4.0908415257       -8.7280019527        5.4030844137
  C         3.0047406823       -8.6887063298        5.2919739424
  H         2.6853413808       -9.0312323512        6.2714246943
  O         1.9985977812       -8.3553887881        4.5599054594
  O         4.2197147413       -8.6069092298        4.9235206312
  C         2.8732291572       -5.7090624943        8.2322507888
  H         2.4095730423       -6.3582442170        8.9295273658
  O         2.2236878889       -4.8031284854        7.6183804854
  O         4.1525405945       -5.8988692439        8.1468427445
  C        -2.5324052264       -5.9090323801        8.5168983878
  H        -2.0058427467       -6.7599986745        9.0204193621
  O        -1.9189018681       -5.2527647032        7.5983339134
  O        -3.6521974131       -5.4981014961        8.8936623702
  C        -6.8661340661        2.3082426882        7.3884767521
  H        -7.2433530482        3.2983326111        7.3747512577
  O        -5.6189307919        2.1553364867        7.5292857639
  O        -7.6694328727        1.3672322100        7.2032576312
  C        -4.1128935570        6.2776012356        7.2258109093
  H        -5.2184092536        6.2949225170        7.4003980339
  O        -3.5215502414        5.2331222329        6.7794929280
  O        -3.5956064510        7.4679880815        7.3184340370
  C        -6.2584500423        7.1467273309        4.0778865765
  H        -7.2018864753        7.1620259062        4.6862261037
  O        -5.8042352338        6.0508881806        3.6277903665
  O        -5.6141473350        8.2227071687        3.8530055117
  C        -9.2670155991        2.9624473135        4.4549609073
  H        -9.7760873251        3.8307467380        4.7753730710
  O        -8.0580447847        3.0137717908        4.1153681461
  O       -10.0869615960        1.9755230626        4.3964141791
  C        -9.5997958208       -3.5202239981        4.2555074891
  H       -10.6284324694       -3.6062117458        4.7363993397
  O        -9.3836198173       -2.7271085544        3.2939504316
  O        -8.6749593009       -4.3055307223        4.7674147240
  C        -5.4063829718       -6.0836320759       -6.1576393485
  H        -6.0390997038       -6.5934387315       -6.8768176703
  O        -5.3157147411       -6.5042627408       -4.9638375967
  O        -4.7997118332       -5.0931497246       -6.6842330004
  C        -7.4812021438       -7.2683192216       -1.8337008205
  H        -7.8430239833       -7.7214409635       -2.7403108931
  O        -6.3847231004       -6.5596142310       -1.8855223803
  O        -8.0870004405       -7.4369608581       -0.7449951352
  C        -9.2637717352       -3.4248031045       -2.1287629167
  H        -9.5435102925       -4.0726156799       -2.9624854104
  O        -8.1685743898       -2.7562864935       -2.2769679175
  O        -9.8293124780       -3.4993302663       -1.0042472880
  C        -6.7198117275       -1.5155721631       -7.0057360974
  H        -7.7266400310       -1.9701098143       -7.1795729881
  O        -6.3208037730       -1.2812141421       -5.7891801227
  O        -6.0546670581       -1.2647410752       -8.0219575549
  C        -1.9610306020        5.6962737072       -7.4797868569
  H        -1.8068881661        6.7616764611       -7.4798700689
  O        -2.4613788677        5.1953402046       -6.4147373301
  O        -1.7592038190        5.0404242691       -8.5376948407
  C        -1.7153677193        9.0065729983       -3.7807068554
  H        -1.3518565997        9.2891789052       -4.8285272378
  O        -1.7735635219        7.7204009534       -3.5311974415
  O        -1.9589811591        9.8892286280       -2.9296575010
  C         2.5176986766        8.6527359013       -4.1276241396
  H         2.7356319561        9.0838176512       -5.0545617483
  O         2.0941304229        7.4607563111       -4.0382054964
  O         2.6632020791        9.4136986823       -3.1567247192
  C         1.7405814703        5.3615037054       -8.2026998584
  H         1.4592813282        6.4433815072       -8.3446733349
  O         2.2712544771        5.0744229803       -7.0359036782
  O         1.5374971892        4.4786315137       -9.0204193621
  C         9.4791869119        2.6134878200        3.9079418032
  H         9.6264681644        3.4611325178        4.5867541287
  O         8.5294682966        2.7206869475        3.0468687327
  O        10.1884170796        1.5361363159        4.0354546634
  C         6.6320899766        7.0427804887        3.3240585285
  H         7.5183451153        7.1103565644        4.0025867163
  O         6.4921259472        6.1579139584        2.4473334656
  O         5.8014508194        7.8970951585        3.5804466065
  C         4.7468288793        5.8510846562        6.9391041765
  H         5.6837062732        5.7110173508        7.4566454645
  O         4.3315486404        4.9881730889        6.0840680113
  O         4.1390624477        6.9214380767        7.1338855679
  C         7.5642974957        1.7429307679        7.1823006621
  H         8.1116275708        2.6102062210        7.6466333920
  O         6.7423080014        2.0330978891        6.2208765696
  O         7.8434776238        0.5800715711        7.5931108165
     227
 i =        1, time =        1.000, E =        12.5856694525
 Cd        -8.6192567024        0.4794695163        3.4774624893
 Cd        -5.8722000724       -0.2570221596        7.1141245505
 Cd        -8.4082668823       -2.1545246242        0.3849640916
 Cd        -6.8924781836       -3.2914596826        3.9611480787
 Cd        -3.6902333400       -3.7007693141        7.3820587651
 Cd        -6.4421704597       -6.2356474836        0.4643511140
 Cd        -4.3122619039       -6.8294369357        3.9057338345
 Cd        -6.1166191060        3.8608858277        2.9061958054
 Cd        -3.6070338684        2.8813959454        6.5900327401
 Cd        -6.7533980697        1.1873284344       -0.3192560383
 Cd        -4.0446606766        0.0755118255        3.0500427432
 Cd        -1.7741956215       -0.3130070283        6.8333819294
 Cd        -6.3662401038       -1.4633560976       -3.4401664753
 Cd        -4.3617598658       -3.1215417095       -0.1744314264
 Cd        -2.2425429083       -3.6220621407        3.6335462332
 Cd         0.1782567490       -3.9617903665        7.0369416922
 Cd        -4.2697136768       -5.9876325533       -2.9988781139
 Cd        -2.2493049215       -6.7963102864        0.6789441195
 Cd         0.0675573704       -7.3034167565        3.8544288806
 Cd        -4.0797966548        7.4118301717        2.4189231338
 Cd        -1.6112271295        6.4884076107        6.2505355571
 Cd        -4.3324925780        4.8129795306       -0.6768811482
 Cd        -1.8303871866        3.6698261913        3.1587129851
 Cd         0.4898257520        3.1634614261        6.7202113914
 Cd        -4.5989932819        2.0001859240       -4.0894471121
 Cd        -2.1630785335        1.0184392116       -0.4517063667
 Cd         0.1383670944       -0.0679037989        3.1343280817
 Cd         2.6424230706       -0.6634444592        6.8955556028
 Cd        -4.1541304227       -0.5350456907       -6.9611080183
 Cd        -2.2032649787       -1.8488472442       -3.4903014880
 Cd         0.0357530669       -2.8475230094       -0.0251266114
 Cd         2.4398495216       -3.8220956301        3.5302997844
 Cd         4.5938485856       -4.2152970885        6.5947225144
 Cd        -2.6320325151       -4.5696880447       -6.0784384899
 Cd        -0.3608204408       -6.1206212009       -3.0632140831
 Cd         1.9866300387       -6.8522111773       -0.0373247882
 Cd         4.3579736853       -7.5041721644        3.0971042998
 Cd        -2.4315966824        8.2870119918       -1.2006035196
 Cd         0.1211384227        6.7913653748        2.0741111618
 Cd         2.2582583635        6.3881225223        5.9818054180
 Cd        -2.2737121820        5.5408606737       -4.1123070199
 Cd         0.1544297549        4.6149069530       -0.9820330669
 Cd         2.6163268077        3.7537924839        2.4616684245
 Cd         4.3940293963        2.5015816367        5.6450592740
 Cd        -2.3860146273        3.0934686145       -7.5401134285
 Cd        -0.1312194911        1.7709758984       -4.3472952070
 Cd         2.1530340883        0.8602737108       -0.9631830307
 Cd         4.3037950068       -0.4401645679        2.5253586943
 Cd         6.4920020148       -0.6515450237        6.0109543302
 Cd         0.4037003284       -0.5928863531       -7.0623839120
 Cd         2.1511328932       -1.8413691124       -3.9632991888
 Cd         4.1300646844       -2.9778642058       -0.5482653536
 Cd         6.9197857320       -3.7967257017        2.8861398219
 Cd         1.0696732380       -4.7686333088       -6.7909931648
 Cd         3.6507277458       -5.7624293099       -3.6174557274
 Cd         5.7325313338       -6.5635949889       -0.3325858986
 Cd         2.4545040104        8.1226303547       -1.1567434982
 Cd         4.4055975486        7.2900032058        1.7947170216
 Cd         2.3803948645        5.2451442848       -4.8083236111
 Cd         4.8186066485        4.7186777468       -1.4279103831
 Cd         6.7583140239        3.8403650963        2.0310827824
 Cd         2.6211327595        2.7831466573       -7.7034387564
 Cd         4.8485271054        1.7850359933       -4.5235293859
 Cd         6.7274881492        1.0644387913       -0.9631023344
 Cd         8.8868004886        0.4155182704        2.4350693576
 Cd         4.3616076560       -0.9234612778       -7.7311091519
 Cd         6.7425973446       -1.9757029187       -4.2011101807
 Cd         8.5292911853       -2.6208117603       -0.2526084559
 Se        -9.0558708625        0.2440407480        0.9177256205
 Se        -6.3729504915       -0.6563257099        4.4185508639
 Se        -3.9340319858       -1.3486386045        8.2982969971
 Se        -6.5829937978       -3.7428764573        1.3876090867
 Se        -4.5790987229       -4.2755614004        4.8603722685
 Se        -4.6124949227       -7.7780416117        1.5324787794
 Se        -6.6434234935        3.9856057461        0.4563614741
 Se        -4.0722042587        2.6207013202        3.9148969455
 Se        -1.6326804305        2.0124394605        7.9267981130
 Se        -6.7136692890        0.9841224487       -3.1648632937
 Se        -4.4074791418       -0.2114342183        0.3946980746
 Se        -2.0527474278       -1.1149504925        4.2598161858
 Se         0.4058612841       -1.5660127170        8.0661436566
 Se        -4.4163429523       -3.1308051347       -2.8052941900
 Se        -2.2368968608       -4.0916974093        0.9473214375
 Se         0.1527149840       -4.8124823369        4.4861128959
 Se        -2.4164085186       -7.4221394945       -2.0536989774
 Se        -0.0661322661       -7.8807017969        1.3096615997
 Se        -4.5538219298        7.5951864769       -0.0137852732
 Se        -1.8479262230        6.3636842058        3.5411677657
 Se         0.4039154236        5.8259350721        7.5880257649
 Se        -4.4675144809        4.5543860489       -3.3489934717
 Se        -2.0809057516        3.7150895958        0.3431711764
 Se         0.4986566672        2.6965073164        3.7294074070
 Se         2.7718773889        1.9959769903        7.6273791972
 Se        -4.6146915458        2.0749955648       -6.9051619182
 Se        -2.2792136988        0.8534259605       -3.1262758358
 Se         0.0149598946       -0.1633474474        0.3856038864
 Se         2.3130641630       -1.3180465478        3.9999529219
 Se         4.8636154033       -1.8841734974        7.7366570064
 Se        -2.0694950375       -1.9666037573       -6.4606523939
 Se        -0.0441277816       -3.1605401479       -2.8087509818
 Se         2.2320890732       -4.2317701095        0.7810875806
 Se         4.8364391587       -4.9537967850        4.0968012760
 Se        -0.7552692343       -6.2866387260       -5.8414556646
 Se         1.9250522030       -7.4802217285       -2.6081891434
 Se         4.2591338488       -8.3809490195        0.7356564081
 Se         0.0353050288        7.3690802244       -0.4916151816
 Se         2.3814897986        6.5251846321        3.1438385378
 Se         0.0441618392        4.4288437304       -3.5945068220
 Se         2.5165374501        3.6273593366       -0.0583467593
 Se         4.7734038856        2.4655214286        3.1249603167
 Se         0.0453608663        1.9309180367       -6.9715264902
 Se         2.2763732876        0.7653916115       -3.6571961164
 Se         4.3771742639       -0.2853134623       -0.0187796324
 Se         6.9679333931       -1.1296790637        3.5575698151
 Se         2.2378977806       -2.2692253867       -6.6841959785
 Se         4.3742586903       -3.1974539017       -3.2159504778
 Se         6.4329370857       -4.1119550746        0.4119020858
 Se         4.8535461245        7.5525330931       -0.7465965375
 Se         4.8779602692        4.5492820968       -4.0134400724
 Se         7.0867580898        3.5944772812       -0.6428681193
 Se         4.7835668581        1.5274344741       -7.5556201754
 Se         6.9201157421        0.6111475997       -3.7073399732
 Se         9.1079073779       -0.0623138189       -0.0931453120
  C         6.9966702506       -6.9497957630       -2.8612716031
  H         7.7649322095       -7.1224747738       -3.6684216540
  O         5.8471195787       -6.4687324426       -3.1397250959
  O         7.2941278780       -7.2767292859       -1.6985726892
  C         3.3950855045       -6.2672819691       -6.9491570464
  H         4.3444066225       -6.8936096686       -7.0753272229
  O         3.0194140968       -5.7920512341       -5.7861618595
  O         2.6193800609       -6.1703435087       -7.9251950366
  C         6.3106270886       -2.9078655077       -7.4910058514
  H         7.1299137504       -3.7048862282       -7.4466889051
  O         6.0083746442       -2.3192276583       -6.3511610065
  O         5.9409463546       -2.4757858047       -8.6133396125
  C         8.9774127683       -3.3708896749       -3.4296313940
  H         9.9250180562       -3.8774829974       -3.1826003730
  O         8.5703356512       -3.4165161309       -4.6050562248
  O         8.2730586796       -2.6980491358       -2.5231160924
  C         9.7980410077       -4.6251877022        2.1809847476
  H        10.6408655401       -5.3318691344        2.3887999993
  O         9.7502596821       -4.1825215768        0.9944805681
  O         9.0333343364       -4.5698823000        3.1878646931
  C        -2.8217177170       -8.8884030453        5.3598599627
  H        -2.4154187803       -9.9024293192        5.4343946394
  O        -1.9860809513       -7.9313543506        5.0432987481
  O        -4.0902592995       -8.7288242996        5.4056280535
  C         2.9969125837       -8.6915855213        5.2874323637
  H         2.6967725338       -9.0398269484        6.2934215078
  O         2.0024057349       -8.3596753298        4.5607951031
  O         4.2226211355       -8.6061632230        4.9244087521
  C         2.8792856649       -5.7053294045        8.2323992281
  H         2.3955873073       -6.3773024893        8.9303283437
  O         2.2223885529       -4.8109162956        7.6178095687
  O         4.1491956971       -5.9058415499        8.1557164990
  C        -2.5347046154       -5.9173520768        8.5219641698
  H        -2.0052498086       -6.7390725628        9.0096019785
  O        -1.9204506493       -5.2606478083        7.5991967438
  O        -3.6521678565       -5.5106242245        8.8945825425
  C        -6.8630607241        2.3027116913        7.3891583095
  H        -7.2086193538        3.3071349018        7.3885257928
  O        -5.6240547740        2.1597886203        7.5352956065
  O        -7.6710492694        1.3717599823        7.2003824700
  C        -4.1170079645        6.2827825080        7.2281580649
  H        -5.2418933127        6.2896177269        7.3832000201
  O        -3.5292388056        5.2303176406        6.7749722411
  O        -3.5923260639        7.4679280323        7.3187028919
  C        -6.2567265948        7.1462137753        4.0781050308
  H        -7.2111390447        7.1649409639        4.6689854642
  O        -5.8096140968        6.0506434974        3.6297080642
  O        -5.6162280835        8.2225328506        3.8520289588
  C        -9.2741835047        2.9617361914        4.4604884471
  H        -9.7855372140        3.8838940690        4.7760086716
  O        -8.0602593868        3.0118625864        4.1203583197
  O       -10.0837507093        1.9820115797        4.3939745649
  C        -9.6032546307       -3.5282060325        4.2551521008
  H       -10.5971720209       -3.6001750875        4.7566807035
  O        -9.3846919434       -2.7228036567        3.2947264190
  O        -8.6843104839       -4.3048755790        4.7656022871
  C        -5.4081387618       -6.0792097294       -6.1561687045
  H        -6.0546960796       -6.5859836395       -6.8890942905
  O        -5.3129856749       -6.5050487272       -4.9688671311
  O        -4.8018170313       -5.0935957321       -6.6862470700
  C        -7.4874781261       -7.2705344487       -1.8348007139
  H        -7.8388434959       -7.7173330376       -2.7530342297
  O        -6.3901974857       -6.5557045270       -1.8861844678
  O        -8.0734921206       -7.4421731762       -0.7471618117
  C        -9.2562428334       -3.4270114671       -2.1219645136
  H        -9.5270787848       -4.0663584857       -2.9594189931
  O        -8.1709776311       -2.7561280540       -2.2724749875
  O        -9.8255245278       -3.4951668489       -1.0105141061
  C        -6.7206957661       -1.5101673961       -7.0045752777
  H        -7.7450574417       -1.9674181007       -7.1698505571
  O        -6.3204481837       -1.2789210378       -5.8021713900
  O        -6.0666201660       -1.2649740414       -8.0173667793
  C        -1.9628827983        5.6954844548       -7.4852938628
  H        -1.7770888886        6.7764005651       -7.4923242406
  O        -2.4612876084        5.1887382359       -6.4110931373
  O        -1.7552526030        5.0443763112       -8.5303543307
  C        -1.7168688889        9.0074822303       -3.7839166132
  H        -1.3493405476        9.2660238074       -4.8465614694
  O        -1.7694657178        7.7230010275       -3.5256226323
  O        -1.9634059426        9.8909821500       -2.9423643155
  C         2.5062190945        8.6538643678       -4.1272910728
  H         2.7131102182        9.0638249498       -5.0476060874
  O         2.0943168654        7.4561538314       -4.0301121673
  O         2.6627329115        9.4125634113       -3.1573629267
  C         1.7411302942        5.3672397234       -8.1968448598
  H         1.4358383610        6.4416008070       -8.3632925476
  O         2.2776634980        5.0782994762       -7.0459295019
  O         1.5306146942        4.4852751743       -9.0190532499
  C         9.4768439415        2.6096230983        3.9000102204
  H         9.6131090334        3.4671477718        4.5843902861
  O         8.5305543882        2.7177887241        3.0512350172
  O        10.1901618107        1.5415665649        4.0350616092
  C         6.6326459125        7.0382756706        3.3282154855
  H         7.5082674956        7.1289998248        4.0070788575
  O         6.4955958897        6.1622316322        2.4476858298
  O         5.7975459540        7.9038643331        3.5834991502
  C         4.7447755005        5.8524700302        6.9353700129
  H         5.7085862008        5.7040540943        7.4370666698
  O         4.3298482797        4.9892717653        6.0818634726
  O         4.1496782036        6.9235349777        7.1394743606
  C         7.5603309323        1.7452823701        7.1878507085
  H         8.1158840311        2.6116602203        7.6593692779
  O         6.7475985921        2.0303381240        6.2252225953
  O         7.8447495754        0.5832848336        7.5907404850
     227
 i =        2, time =        2.000, E =        12.0980085071
 Cd        -8.6166853776        0.4776455189        3.4779439176
 Cd        -5.8733990873       -0.2569651081        7.1125717471
 Cd        -8.4090700748       -2.1567021699        0.3826116241
 Cd        -6.8887606071       -3.2925821925        3.9623769758