     227
 i =        0, time =        0.000, E =         0.4371261360
 Cd        -8.6216924880        0.4810107428        3.4775887729
 Cd        -5.8723589632       -0.2566559957        7.1151373767
 Cd        -8.4076147924       -2.1531404527        0.3867588804
 Cd        -6.8957642261       -3.2896665849        3.9600318291
 Cd        -3.6930098048       -3.6992689615        7.3819491709
 Cd        -6.4429261463       -6.2347087238        0.4622469067
 Cd        -4.3123952394       -6.8285875372        3.9039095072
 Cd        -6.1141073353        3.8626235599        2.9066844924
 Cd        -3.6048790416        2.8797284733        6.5917986711
 Cd        -6.7531255596        1.1841266196       -0.3182182747
 Cd        -4.0437606329        0.0729837467        3.0511954168
 Cd        -1.7753257667       -0.3121054857        6.8316599018
 Cd        -6.3661028473       -1.4630135273       -3.4383357626
 Cd        -4.3602814436       -3.1214810613       -0.1759283953
 Cd        -2.2424276819       -3.6242998489        3.6335413818
 Cd         0.1757294635       -3.9625201566        7.0364714760
 Cd        -4.2692200317       -5.9860442556       -3.0005266361
 Cd        -2.2482225396       -6.7972628816        0.6786391664
 Cd         0.0669003827       -7.3030327295        3.8545421700
 Cd        -4.0792754193        7.4105475565        2.4175118797
 Cd        -1.6116442377        6.4880648240        6.2478272306
 Cd        -4.3308002626        4.8127262164       -0.6762739309
 Cd        -1.8326132452        3.6694977750        3.1598212265
 Cd         0.4939817277        3.1637060931        6.7202662426
 Cd        -4.5980154021        1.9988297698       -4.0880170010
 Cd        -2.1651194586        1.0165564496       -0.4536921834
 Cd         0.1376109507       -0.0659106884        3.1336818174
 Cd         2.6419074521       -0.6636939286        6.8958319365
 Cd        -4.1515129292       -0.5348426091       -6.9620217917
 Cd        -2.2012490343       -1.8491984656       -3.4894107829
 Cd         0.0359311218       -2.8494155653       -0.0264680683
 Cd         2.4407298775       -3.8224684908        3.5289587884
 Cd         4.5907434619       -4.2169180472        6.5928471603
 Cd        -2.6321953796       -4.5685798778       -6.0773989300
 Cd        -0.3638438279       -6.1221236347       -3.0620735359
 Cd         1.9882729153       -6.8506852632       -0.0376753302
 Cd         4.3604701588       -7.5063202656        3.0981086138
 Cd        -2.4313710890        8.2839908015       -1.2010761441
 Cd         0.1210964618        6.7915494583        2.0748938605
 Cd         2.2602783261        6.3879934074        5.9824457591
 Cd        -2.2743307721        5.5403016700       -4.1096429978
 Cd         0.1552258413        4.6164378819       -0.9814446932
 Cd         2.6173372932        3.7540356816        2.4616712460
 Cd         4.3934694910        2.5024270436        5.6448470259
 Cd        -2.3839877703        3.0961459608       -7.5397423510
 Cd        -0.1308699873        1.7716472388       -4.3458913396
 Cd         2.1522040622        0.8595996928       -0.9600505658
 Cd         4.3027041934       -0.4425155449        2.5248589789
 Cd         6.4943132815       -0.6514444341        6.0110723312
 Cd         0.4032906214       -0.5920449882       -7.0625722312
 Cd         2.1504065746       -1.8410095193       -3.9631978812
 Cd         4.1282053355       -2.9764966895       -0.5499119195
 Cd         6.9189885741       -3.8001688729        2.8840486736
 Cd         1.0693858855       -4.7693596381       -6.7909688629
 Cd         3.6529341800       -5.7620820022       -3.6150795142
 Cd         5.7341856059       -6.5625995016       -0.3323817960
 Cd         2.4532379782        8.1225833618       -1.1556872380
 Cd         4.4025673150        7.2904811152        1.7928276254
 Cd         2.3800547108        5.2453457502       -4.8107637235
 Cd         4.8184663347        4.7191125514       -1.4277792117
 Cd         6.7589411702        3.8390778732        2.0295448973
 Cd         2.6210634084        2.7844913241       -7.7035228004
 Cd         4.8495943395        1.7843685348       -4.5225056138
 Cd         6.7261500983        1.0662237140       -0.9642295531
 Cd         8.8881450478        0.4141445330        2.4369093904
 Cd         4.3615782352       -0.9213178924       -7.7328888960
 Cd         6.7438649008       -1.9767569930       -4.2031112584
 Cd         8.5272445020       -2.6218905711       -0.2551455218
 Se        -9.0557725106        0.2424574140        0.9180313808
 Se        -6.3745872764       -0.6570220647        4.4225742627
 Se        -3.9358548519       -1.3506397678        8.2925868769
 Se        -6.5830028390       -3.7408669090        1.3890860046
 Se        -4.5802302415       -4.2716541219        4.8585926421
 Se        -4.6110671623       -7.7792240778        1.5343213278
 Se        -6.6407812351        3.9866809498        0.4586064126
 Se        -4.0705866514        2.6241591830        3.9150270775
 Se        -1.6315747320        2.0143859544        7.9219454430
 Se        -6.7106235468        0.9827493806       -3.1628202938
 Se        -4.4077684895       -0.2106461950        0.3970531668
 Se        -2.0534879979       -1.1190641497        4.2604482105
 Se         0.4069246601       -1.5676855049        8.0617057342
 Se        -4.4126107232       -3.1307459794       -2.8028288282
 Se        -2.2371864822       -4.0884616040        0.9473336128
 Se         0.1541797359       -4.8148952714        4.4843326207
 Se        -2.4147106009       -7.4199706225       -2.0529393442
 Se        -0.0662571417       -7.8800811154        1.3078284855
 Se        -4.5519687636        7.5920037884       -0.0122560791
 Se        -1.8482840651        6.3647212661        3.5390459072
 Se         0.4006735392        5.8241498358        7.5878867146
 Se        -4.4655945585        4.5529209660       -3.3484418515
 Se        -2.0798083538        3.7153034916        0.3451575142
 Se         0.4973892782        2.6967113851        3.7286137790
 Se         2.7724753484        1.9958260876        7.6298945277
 Se        -4.6126224962        2.0736182894       -6.9031574659
 Se        -2.2770211290        0.8531533747       -3.1284312065
 Se         0.0138865169       -0.1636477002        0.3858468104
 Se         2.3115473387       -1.3198431962        4.0017354986
 Se         4.8624545925       -1.8855864388        7.7371297607
 Se        -2.0700877949       -1.9675257511       -6.4603372509
 Se        -0.0447057629       -3.1582708631       -2.8090856920
 Se         2.2343306950       -4.2299664240        0.7817840723
 Se         4.8342987615       -4.9516929708        4.0974643468
 Se        -0.7556003326       -6.2829108386       -5.8406699955
 Se         1.9243057511       -7.4784768035       -2.6074198353
 Se         4.2543989663       -8.3809591814        0.7363809319
 Se         0.0386925703        7.3677075300       -0.4939635450
 Se         2.3791568525        6.5289221229        3.1400383851
 Se         0.0465974103        4.4270318221       -3.5936563407
 Se         2.5167269427        3.6273521599       -0.0581806204
 Se         4.7705604635        2.4670139639        3.1233546104
 Se         0.0435933033        1.9323944164       -6.9695738842
 Se         2.2733127965        0.7623703678       -3.6584263160
 Se         4.3816175435       -0.2841549253       -0.0177063702
 Se         6.9670500347       -1.1290204494        3.5565582379
 Se         2.2410869402       -2.2702007814       -6.6798205275
 Se         4.3723294721       -3.1971869108       -3.2130677403
 Se         6.4331938555       -4.1098532443        0.4136420186
 Se         4.8503033307        7.5509093293       -0.7463548497
 Se         4.8776288797        4.5477652435       -4.0091414448
 Se         7.0830986217        3.5950723552       -0.6434567968
 Se         4.7810064642        1.5273410534       -7.5566303287
 Se         6.9188050062        0.6130038217       -3.7081238627
 Se         9.1066871843       -0.0609359671       -0.0919647969
  C         6.9955771113       -6.9586634775       -2.8583426301
  H         7.7780160969       -7.1271873265       -3.6573399650
  O         5.8389952916       -6.4652991204       -3.1445809228
  O         7.2920676004       -7.2683568805       -1.6893132711
  C         3.3939431960       -6.2668607509       -6.9513074648
  H         4.3245440932       -6.8689211647       -7.0591687882
  O         3.0202466073       -5.7860511295       -5.7843136273
  O         2.6220129789       -6.1746538788       -7.9242101403
  C         6.3116555909       -2.9071154185       -7.4921130606
  H         7.0978863851       -3.7212906458       -7.4285512081
  O         6.0096715894       -2.3219711192       -6.3505932827
  O         5.9403243477       -2.4750431756       -8.6116316973
  C         8.9837561036       -3.3697375837       -3.4349055328
  H         9.9249943929       -3.8864043165       -3.1840078659
  O         8.5659407989       -3.4209184445       -4.6048832464
  O         8.2714489672       -2.6971151254       -2.5207012617
  C         9.7902109758       -4.6282247391        2.1768529346
  H        10.6284324694       -5.3337138149        2.3552924638
  O         9.7484501532       -4.1824896055        0.9942458601
  O         9.0219926648       -4.5705851174        3.1873629795
  C        -2.8252708508       -8.8894178348        5.3653894160
  H        -2.3915771747       -9.8892286280        5.4446685031
  O        -1.9808601030       -7.9304545651        5.0436955975
  O        -4.0908415257       -8.7280019527        5.4030844137
  C         3.0047406823       -8.6887063298        5.2919739424
  H         2.6853413808       -9.0312323512        6.2714246943
  O         1.9985977812       -8.3553887881        4.5599054594
  O         4.2197147413       -8.6069092298        4.9235206312
  C         2.8732291572       -5.7090624943        8.2322507888
  H         2.4095730423       -6.3582442170        8.9295273658
  O         2.2236878889       -4.8031284854        7.6183804854
  O         4.1525405945       -5.8988692439        8.1468427445
  C        -2.5324052264       -5.9090323801        8.5168983878
  H        -2.0058427467       -6.7599986745        9.0204193621
  O        -1.9189018681       -5.2527647032        7.5983339134
  O        -3.6521974131       -5.4981014961        8.8936623702
  C        -6.8661340661        2.3082426882        7.3884767521
  H        -7.2433530482        3.2983326111        7.3747512577
  O        -5.6189307919        2.1553364867        7.5292857639
  O        -7.6694328727        1.3672322100        7.2032576312
  C        -4.1128935570        6.2776012356        7.2258109093
  H        -5.2184092536        6.2949225170        7.4003980339
  O        -3.5215502414        5.2331222329        6.7794929280
  O        -3.5956064510        7.4679880815        7.3184340370
  C        -6.2584500423        7.1467273309        4.0778865765
  H        -7.2018864753        7.1620259062        4.6862261037
  O        -5.8042352338        6.0508881806        3.6277903665
  O        -5.6141473350        8.2227071687        3.8530055117
  C        -9.2670155991        2.9624473135        4.4549609073
  H        -9.7760873251        3.8307467380        4.7753730710
  O        -8.0580447847        3.0137717908        4.1153681461
  O       -10.0869615960        1.9755230626        4.3964141791
  C        -9.5997958208       -3.5202239981        4.2555074891
  H       -10.6284324694       -3.6062117458        4.7363993397
  O        -9.3836198173       -2.7271085544        3.2939504316
  O        -8.6749593009       -4.3055307223        4.7674147240
  C        -5.4063829718       -6.0836320759       -6.1576393485
  H        -6.0390997038       -6.5934387315       -6.8768176703
  O        -5.3157147411       -6.5042627408       -4.9638375967
  O        -4.7997118332       -5.0931497246       -6.6842330004
  C        -7.4812021438       -7.2683192216       -1.8337008205
  H        -7.8430239833       -7.7214409635       -2.7403108931
  O        -6.3847231004       -6.5596142310       -1.8855223803
  O        -8.0870004405       -7.4369608581       -0.7449951352
  C        -9.2637717352       -3.4248031045       -2.1287629167
  H        -9.5435102925       -4.0726156799       -2.9624854104
  O        -8.1685743898       -2.7562864935       -2.2769679175
  O        -9.8293124780       -3.4993302663       -1.0042472880
  C        -6.7198117275       -1.5155721631       -7.0057360974
  H        -7.7266400310       -1.9701098143       -7.1795729881
  O        -6.3208037730       -1.2812141421       -5.7891801227
  O        -6.0546670581       -1.2647410752       -8.0219575549
  C        -1.9610306020        5.6962737072       -7.4797868569
  H        -1.8068881661        6.7616764611       -7.4798700689
  O        -2.4613788677        5.1953402046       -6.4147373301
  O        -1.7592038190        5.0404242691       -8.5376948407
  C        -1.7153677193        9.0065729983       -3.7807068554
  H        -1.3518565997        9.2891789052       -4.8285272378
  O        -1.7735635219        7.7204009534       -3.5311974415
  O        -1.9589811591        9.8892286280       -2.9296575010
  C         2.5176986766        8.6527359013       -4.1276241396
  H         2.7356319561        9.0838176512       -5.0545617483
  O         2.0941304229        7.4607563111       -4.0382054964
  O         2.6632020791        9.4136986823       -3.1567247192
  C         1.7405814703        5.3615037054       -8.2026998584
  H         1.4592813282        6.4433815072       -8.3446733349
  O         2.2712544771        5.0744229803       -7.0359036782
  O         1.5374971892        4.4786315137       -9.0204193621
  C         9.4791869119        2.6134878200        3.9079418032
  H         9.6264681644        3.4611325178        4.5867541287
  O         8.5294682966        2.7206869475        3.0468687327
  O        10.1884170796        1.5361363159        4.0354546634
  C         6.6320899766        7.0427804887        3.3240585285
  H         7.5183451153        7.1103565644        4.0025867163
  O         6.4921259472        6.1579139584        2.4473334656
  O         5.8014508194        7.8970951585        3.5804466065
  C         4.7468288793        5.8510846562        6.9391041765
  H         5.6837062732        5.7110173508        7.4566454645
  O         4.3315486404        4.9881730889        6.0840680113
  O         4.1390624477        6.9214380767        7.1338855679
  C         7.5642974957        1.7429307679        7.1823006621
  H         8.1116275708        2.6102062210        7.6466333920
  O         6.7423080014        2.0330978891        6.2208765696
  O         7.8434776238        0.5800715711        7.5931108165
     227
 i =        1, time =        1.000, E =         0.4146740241
 Cd        -8.6193177219        0.4795865447        3.4772456188
 Cd        -5.8717033565       -0.2571641170        7.1143226177
 Cd        -8.4082176379       -2.1542310072        0.3851685647
 Cd        -6.8926626507       -3.2917190498        3.9611118386
 Cd        -3.6901920178       -3.7004778685        7.3822798925
 Cd        -6.4420163577       -6.2357153894        0.4643061871
 Cd        -4.3123297329       -6.8295556413        3.9053448158
 Cd        -6.1164296557        3.8609124758        2.9057210079
 Cd        -3.6067157068        2.8812650188        6.5902910526
 Cd        -6.7534066578        1.1872504883       -0.3192257008
 Cd        -4.0444620154        0.0755149197        3.0501380162
 Cd        -1.7741947826       -0.3126848926        6.8334985602
 Cd        -6.3661149923       -1.4626757012       -3.4401634213
 Cd        -4.3614496795       -3.1217225224       -0.1745260561
 Cd        -2.2425885327       -3.6216961758        3.6335835937
 Cd         0.1785817506       -3.9616377774        7.0369243096
 Cd        -4.2694433295       -5.9880548682       -2.9988631180
 Cd        -2.2488624480       -6.7965237632        0.6791208076
 Cd         0.0677262331       -7.3030897671        3.8542776710
 Cd        -4.0801401555        7.4119083114        2.4184328110
 Cd        -1.6108827823        6.4880560438        6.2508351235
 Cd        -4.3324978703        4.8128472341       -0.6769219749
 Cd        -1.8303820018        3.6696490879        3.1588823222
 Cd         0.4898087072        3.1633833270        6.7204209546
 Cd        -4.5994403094        2.0001140378       -4.0891197254
 Cd        -2.1629264880        1.0182023168       -0.4517336754
 Cd         0.1384086507       -0.0680977857        3.1343774888
 Cd         2.6424421347       -0.6635315075        6.8957822182
 Cd        -4.1540669953       -0.5351229102       -6.9611200237
 Cd        -2.2031923771       -1.8490325185       -3.4900958230
 Cd         0.0357933486       -2.8474752110       -0.0251034730
 Cd         2.4397484783       -3.8216904711        3.5304192903
 Cd         4.5938467648       -4.2152138037        6.5946734517
 Cd        -2.6317700605       -4.5698908326       -6.0785067837
 Cd        -0.3609303153       -6.1209181925       -3.0631442584
 Cd         1.9864681965       -6.8522879704       -0.0374218821
 Cd         4.3579037852       -7.5048029487        3.0973150764
 Cd        -2.4319329341        8.2867996690       -1.2004009231
 Cd         0.1211434940        6.7911931357        2.0746060252
 Cd         2.2581191147        6.3879880346        5.9824033143
 Cd        -2.2739482216        5.5406217986       -4.1121599665
 Cd         0.1544536652        4.6148664927       -0.9822460372
 Cd         2.6164637550        3.7534732068        2.4611996563
 Cd         4.3939346044        2.5015295349        5.6447815613
 Cd        -2.3863477329        3.0936287720       -7.5399538596
 Cd        -0.1312510516        1.7709189820       -4.3473798074
 Cd         2.1531152808        0.8600842976       -0.9631893124
 Cd         4.3035413945       -0.4402407582        2.5249601260
 Cd         6.4920052312       -0.6517293511        6.0106019132
 Cd         0.4041123281       -0.5928055030       -7.0621960958
 Cd         2.1512487120       -1.8411601165       -3.9633145764
 Cd         4.1299800329       -2.9779753254       -0.5482351237
 Cd         6.9198037335       -3.7969093157        2.8856966173
 Cd         1.0695629797       -4.7690314391       -6.7907609643
 Cd         3.6506388304       -5.7624803822       -3.6176361683
 Cd         5.7328341223       -6.5638989620       -0.3327111030
 Cd         2.4549509423        8.1223827867       -1.1566214285
 Cd         4.4053922006        7.2898488646        1.7947894000
 Cd         2.3803989071        5.2451748009       -4.8086111788
 Cd         4.8188648407        4.7185074502       -1.4282625287
 Cd         6.7582399242        3.8402044479        2.0311226436
 Cd         2.6216197313        2.7829504773       -7.7033901709
 Cd         4.8491075909        1.7847607758       -4.5232367174
 Cd         6.7276364137        1.0648572869       -0.9630944856
 Cd         8.8867529974        0.4155517047        2.4348679332
 Cd         4.3617279958       -0.9228307521       -7.7309783730
 Cd         6.7427155806       -1.9756322445       -4.2012248598
 Cd         8.5291683804       -2.6208012304       -0.2527298929
 Se        -9.0550992478        0.2432050543        0.9181568589
 Se        -6.3728242911       -0.6564329719        4.4183773378
 Se        -3.9343947672       -1.3488486471        8.2970274622
 Se        -6.5831029978       -3.7426221497        1.3879615476
 Se        -4.5790979483       -4.2750282614        4.8599072570
 Se        -4.6123058028       -7.7770086747        1.5327337837
 Se        -6.6426034246        3.9855899148        0.4573443087
 Se        -4.0720527209        2.6208142141        3.9144657827
 Se        -1.6331514009        2.0119277662        7.9256160163
 Se        -6.7122304515        0.9832347531       -3.1653196891
 Se        -4.4071910056       -0.2112560117        0.3948323975
 Se        -2.0530405311       -1.1152458046        4.2595114397
 Se         0.4059667800       -1.5661047199        8.0653938687
 Se        -4.4161661159       -3.1302160977       -2.8048433261
 Se        -2.2373023557       -4.0916276646        0.9472377971
 Se         0.1529678180       -4.8126931760        4.4858960160
 Se        -2.4165222941       -7.4210587786       -2.0538802517
 Se        -0.0667379106       -7.8795868473        1.3095650893
 Se        -4.5526189716        7.5949395611       -0.0129207540
 Se        -1.8470899891        6.3634025233        3.5403769723
 Se         0.4037633290        5.8261019716        7.5864851868
 Se        -4.4664540020        4.5540832892       -3.3489711144
 Se        -2.0809775904        3.7152131058        0.3431820513
 Se         0.4983521683        2.6968717418        3.7288795758
 Se         2.7718260696        1.9959085595        7.6265652898
 Se        -4.6136165225        2.0748521888       -6.9049810543
 Se        -2.2789889470        0.8535101822       -3.1261458561
 Se         0.0146610678       -0.1632520128        0.3854520125
 Se         2.3129905332       -1.3187016832        3.9992714847
 Se         4.8632820511       -1.8842632831        7.7357800704
 Se        -2.0700220462       -1.9664712743       -6.4604605072
 Se        -0.0445634009       -3.1601050762       -2.8087845674
 Se         2.2322691159       -4.2315583110        0.7809821421
 Se         4.8362975870       -4.9532930381        4.0967435079
 Se        -0.7551737531       -6.2853403479       -5.8414119731
 Se         1.9250289764       -7.4793973724       -2.6077920808
 Se         4.2593013687       -8.3796850351        0.7361939841
 Se         0.0355461496        7.3687570971       -0.4914389430
 Se         2.3810850550        6.5252086743        3.1428476259
 Se         0.0438381488        4.4288533807       -3.5941445156
 Se         2.5164449138        3.6274164098       -0.0572377151
 Se         4.7729034503        2.4660135855        3.1252334070
 Se         0.0454807963        1.9302572066       -6.9707932236
 Se         2.2759906669        0.7649930974       -3.6571155891
 Se         4.3768072952       -0.2853495977       -0.0180705616
 Se         6.9677910290       -1.1294895415        3.5580612711
 Se         2.2372669380       -2.2684812275       -6.6838850895
 Se         4.3739039332       -3.1974928587       -3.2157594183
 Se         6.4331176818       -4.1117617908        0.4126743070
 Se         4.8521075710        7.5524563384       -0.7461223852
 Se         4.8776363113        4.5490787341       -4.0125662405
 Se         7.0859315288        3.5937389734       -0.6429077029
 Se         4.7822209134        1.5267001868       -7.5555684180
 Se         6.9190016443        0.6112053904       -3.7073739398
 Se         9.1071630772       -0.0625816811       -0.0925672382
  C         6.9966814970       -6.9498572099       -2.8612687558
  H         7.7649322095       -7.1224747738       -3.6684216540
  O         5.8448357021       -6.4676205353       -3.1400208261
  O         7.2900375680       -7.2748470621       -1.6949350688
  C         3.3950581470       -6.2673156058       -6.9491903013
  H         4.3444066225       -6.8936096686       -7.0753272229
  O         3.0189937611       -5.7912253456       -5.7831054607
  O         2.6181728302       -6.1693289477       -7.9243253176
  C         6.3106282777       -2.9078448914       -7.4910748716
  H         7.1299137504       -3.7048862282       -7.4466889051
  O         6.0085012023       -2.3184818595       -6.3484078646
  O         5.9398161567       -2.4746753081       -8.6127241860
  C         8.9774620842       -3.3708772481       -3.4296555584
  H         9.9250180562       -3.8774829974       -3.1826003730
  O         8.5688528953       -3.4153251384       -4.6047556837
  O         8.2721061616       -2.6970265184       -2.5208480834
  C         9.7980876312       -4.6252059980        2.1810032421
  H        10.6408655401       -5.3318691344        2.3887999993
  O         9.7479516174       -4.1810665001        0.9930867922
  O         9.0298819735       -4.5686102179        3.1872644530
  C        -2.8217363084       -8.8884518352        5.3598596422
  H        -2.4154187803       -9.9024293192        5.4343946394
  O        -1.9850848587       -7.9308601503        5.0426031438
  O        -4.0904207127       -8.7278534032        5.4047561420
  C         2.9969254570       -8.6916369830        5.2874243932
  H         2.6967725338       -9.0398269484        6.2934215078
  O         2.0001363727       -8.3583766308        4.5597882602
  O         4.2231816073       -8.6020834790        4.9178747467
  C         2.8793116282       -5.7053260293        8.2324390468
  H         2.3955873073       -6.3773024893        8.9303283437
  O         2.2198752252       -4.8093833034        7.6167751286
  O         4.1496764436       -5.9041257804        8.1542041691
  C        -2.5347166191       -5.9173462110        8.5220235072
  H        -2.0052498086       -6.7390725628        9.0096019785
  O        -1.9211487067       -5.2589928620        7.5985629575
  O        -3.6522275062       -5.5090246014        8.8932859849
  C        -6.8630708704        2.3027037176        7.3892259879
  H        -7.2086193538        3.3071349018        7.3885257928
  O        -5.6220385913        2.1593059047        7.5341529453
  O        -7.6699891809        1.3706797088        7.2000629758
  C        -4.1169919100        6.2828129653        7.2282050398
  H        -5.2418933127        6.2896177269        7.3832000201
  O        -3.5273735286        5.2293852588        6.7741549391
  O        -3.5914497377        7.4675157416        7.3182656159
  C        -6.2567497322        7.1462555872        4.0780876350
  H        -7.2111390447        7.1649409639        4.6689854642
  O        -5.8092257383        6.0485897610        3.6283582637
  O        -5.6137276104        8.2212401701        3.8496154426
  C        -9.2742362390        2.9617658872        4.4604723541
  H        -9.7855372140        3.8838940690        4.7760086716
  O        -8.0592222276        3.0119024406        4.1195663518
  O       -10.0818415785        1.9800212732        4.3926690289
  C        -9.6032907182       -3.5282264378        4.2551735490
  H       -10.5971720209       -3.6001750875        4.7566807035
  O        -9.3836985807       -2.7228030514        3.2943771523
  O        -8.6801405351       -4.3025515519        4.7636854504
  C        -5.4081380378       -6.0792448019       -6.1562061571
  H        -6.0546960796       -6.5859836395       -6.8890942905
  O        -5.3115874763       -6.5043865057       -4.9661910560
  O        -4.7993411119       -5.0929859308       -6.6855845901
  C        -7.4875008049       -7.2705907857       -1.8347911763
  H        -7.8388434959       -7.7173330376       -2.7530342297
  O        -6.3891405339       -6.5552119886       -1.8848198769
  O        -8.0722067801       -7.4412841555       -0.7462075073
  C        -9.2562944022       -3.4269919949       -2.1219810551
  H        -9.5270787848       -4.0663584857       -2.9594189931
  O        -8.1701479061       -2.7556074621       -2.2726696857
  O        -9.8246062680       -3.4943004298       -1.0095678108
  C        -6.7207165367       -1.5101338424       -7.0046123839
  H        -7.7450574417       -1.9674181007       -7.1698505571
  O        -6.3200445295       -1.2782995460       -5.7998609474
  O        -6.0642253574       -1.2638565098       -8.0160354554
  C        -1.9629210174        5.6954932192       -7.4853298530
  H        -1.7770888886        6.7764005651       -7.4923242406
  O        -2.4612417177        5.1872666071       -6.4093416196
  O        -1.7560911881        5.0415104313       -8.5289262229
  C        -1.7169065268        9.0075241028       -3.7839125362
  H        -1.3493405476        9.2660238074       -4.8465614694
  O        -1.7698726923        7.7204205083       -3.5249020740
  O        -1.9636558904        9.8899995199       -2.9412825830
  C         2.5062519428        8.6539006922       -4.1272903460
  H         2.7131102182        9.0638249498       -5.0476060874
  O         2.0944258758        7.4540269634       -4.0305624203
  O         2.6627748564        9.4115559881       -3.1558324079
  C         1.7411746940        5.3672446196       -8.1968796713
  H         1.4358383610        6.4416008070       -8.3632925476
  O         2.2780344526        5.0770835754       -7.0421216067
  O         1.5310438201        4.4838925354       -9.0180068984
  C         9.4769077358        2.6096305113        3.8999927330
  H         9.6131090334        3.4671477718        4.5843902861
  O         8.5286891789        2.7174847554        3.0497300642
  O        10.1890086347        1.5405452969        4.0336502287
  C         6.6326695574        7.0383240372        3.3281949365
  H         7.5082674956        7.1289998248        4.0070788575
  O         6.4948167544        6.1609220349        2.4468474567
  O         5.7960611415        7.9032620400        3.5819080217
  C         4.7447618379        5.8524914924        6.9354172747
  H         5.7085862008        5.7040540943        7.4370666698
  O         4.3289486702        4.9887458304        6.0816403073
  O         4.1467600741        6.9227214202        7.1378242187
  C         7.5603422573        1.7452800259        7.1879046454
  H         8.1158840311        2.6116602203        7.6593692779
  O         6.7463482835        2.0302937728        6.2246684190
  O         7.8438576540        0.5824643217        7.5898997677
     227
 i =        2, time =        2.000, E =         0.3614690451
 Cd        -8.6169023760        0.4780959712        3.4770711035
 Cd        -5.8714317044       -0.2575308908        7.1133544267
 Cd        -8.4088723305       -2.1555543316        0.3834146521
 Cd        -6.8894341847       -3.2935782017        3.9622137582