     227
 i =        0, time =        0.000, E =        -2.7639569044
 Cd        -8.6216924880        0.4810107428        3.4775887729
 Cd        -5.8723589632       -0.2566559957        7.1151373767
 Cd        -8.4076147924       -2.1531404527        0.3867588804
 Cd        -6.8957642261       -3.2896665849        3.9600318291
 Cd        -3.6930098048       -3.6992689615        7.3819491709
 Cd        -6.4429261463       -6.2347087238        0.4622469067
 Cd        -4.3123952394       -6.8285875372        3.9039095072
 Cd        -6.1141073353        3.8626235599        2.9066844924
 Cd        -3.6048790416        2.8797284733        6.5917986711
 Cd        -6.7531255596        1.1841266196       -0.3182182747
 Cd        -4.0437606329        0.0729837467        3.0511954168
 Cd        -1.7753257667       -0.3121054857        6.8316599018
 Cd        -6.3661028473       -1.4630135273       -3.4383357626
 Cd        -4.3602814436       -3.1214810613       -0.1759283953
 Cd        -2.2424276819       -3.6242998489        3.6335413818
 Cd         0.1757294635       -3.9625201566        7.0364714760
 Cd        -4.2692200317       -5.9860442556       -3.0005266361
 Cd        -2.2482225396       -6.7972628816        0.6786391664
 Cd         0.0669003827       -7.3030327295        3.8545421700
 Cd        -4.0792754193        7.4105475565        2.4175118797
 Cd        -1.6116442377        6.4880648240        6.2478272306
 Cd        -4.3308002626        4.8127262164       -0.6762739309
 Cd        -1.8326132452        3.6694977750        3.1598212265
 Cd         0.4939817277        3.1637060931        6.7202662426
 Cd        -4.5980154021        1.9988297698       -4.0880170010
 Cd        -2.1651194586        1.0165564496       -0.4536921834
 Cd         0.1376109507       -0.0659106884        3.1336818174
 Cd         2.6419074521       -0.6636939286        6.8958319365
 Cd        -4.1515129292       -0.5348426091       -6.9620217917
 Cd        -2.2012490343       -1.8491984656       -3.4894107829
 Cd         0.0359311218       -2.8494155653       -0.0264680683
 Cd         2.4407298775       -3.8224684908        3.5289587884
 Cd         4.5907434619       -4.2169180472        6.5928471603
 Cd        -2.6321953796       -4.5685798778       -6.0773989300
 Cd        -0.3638438279       -6.1221236347       -3.0620735359
 Cd         1.9882729153       -6.8506852632       -0.0376753302
 Cd         4.3604701588       -7.5063202656        3.0981086138
 Cd        -2.4313710890        8.2839908015       -1.2010761441
 Cd         0.1210964618        6.7915494583        2.0748938605
 Cd         2.2602783261        6.3879934074        5.9824457591
 Cd        -2.2743307721        5.5403016700       -4.1096429978
 Cd         0.1552258413        4.6164378819       -0.9814446932
 Cd         2.6173372932        3.7540356816        2.4616712460
 Cd         4.3934694910        2.5024270436        5.6448470259
 Cd        -2.3839877703        3.0961459608       -7.5397423510
 Cd        -0.1308699873        1.7716472388       -4.3458913396
 Cd         2.1522040622        0.8595996928       -0.9600505658
 Cd         4.3027041934       -0.4425155449        2.5248589789
 Cd         6.4943132815       -0.6514444341        6.0110723312
 Cd         0.4032906214       -0.5920449882       -7.0625722312
 Cd         2.1504065746       -1.8410095193       -3.9631978812
 Cd         4.1282053355       -2.9764966895       -0.5499119195
 Cd         6.9189885741       -3.8001688729        2.8840486736
 Cd         1.0693858855       -4.7693596381       -6.7909688629
 Cd         3.6529341800       -5.7620820022       -3.6150795142
 Cd         5.7341856059       -6.5625995016       -0.3323817960
 Cd         2.4532379782        8.1225833618       -1.1556872380
 Cd         4.4025673150        7.2904811152        1.7928276254
 Cd         2.3800547108        5.2453457502       -4.8107637235
 Cd         4.8184663347        4.7191125514       -1.4277792117
 Cd         6.7589411702        3.8390778732        2.0295448973
 Cd         2.6210634084        2.7844913241       -7.7035228004
 Cd         4.8495943395        1.7843685348       -4.5225056138
 Cd         6.7261500983        1.0662237140       -0.9642295531
 Cd         8.8881450478        0.4141445330        2.4369093904
 Cd         4.3615782352       -0.9213178924       -7.7328888960
 Cd         6.7438649008       -1.9767569930       -4.2031112584
 Cd         8.5272445020       -2.6218905711       -0.2551455218
 Se        -9.0557725106        0.2424574140        0.9180313808
 Se        -6.3745872764       -0.6570220647        4.4225742627
 Se        -3.9358548519       -1.3506397678        8.2925868769
 Se        -6.5830028390       -3.7408669090        1.3890860046
 Se        -4.5802302415       -4.2716541219        4.8585926421
 Se        -4.6110671623       -7.7792240778        1.5343213278
 Se        -6.6407812351        3.9866809498        0.4586064126
 Se        -4.0705866514        2.6241591830        3.9150270775
 Se        -1.6315747320        2.0143859544        7.9219454430
 Se        -6.7106235468        0.9827493806       -3.1628202938
 Se        -4.4077684895       -0.2106461950        0.3970531668
 Se        -2.0534879979       -1.1190641497        4.2604482105
 Se         0.4069246601       -1.5676855049        8.0617057342
 Se        -4.4126107232       -3.1307459794       -2.8028288282
 Se        -2.2371864822       -4.0884616040        0.9473336128
 Se         0.1541797359       -4.8148952714        4.4843326207
 Se        -2.4147106009       -7.4199706225       -2.0529393442
 Se        -0.0662571417       -7.8800811154        1.3078284855
 Se        -4.5519687636        7.5920037884       -0.0122560791
 Se        -1.8482840651        6.3647212661        3.5390459072
 Se         0.4006735392        5.8241498358        7.5878867146
 Se        -4.4655945585        4.5529209660       -3.3484418515
 Se        -2.0798083538        3.7153034916        0.3451575142
 Se         0.4973892782        2.6967113851        3.7286137790
 Se         2.7724753484        1.9958260876        7.6298945277
 Se        -4.6126224962        2.0736182894       -6.9031574659
 Se        -2.2770211290        0.8531533747       -3.1284312065
 Se         0.0138865169       -0.1636477002        0.3858468104
 Se         2.3115473387       -1.3198431962        4.0017354986
 Se         4.8624545925       -1.8855864388        7.7371297607
 Se        -2.0700877949       -1.9675257511       -6.4603372509
 Se        -0.0447057629       -3.1582708631       -2.8090856920
 Se         2.2343306950       -4.2299664240        0.7817840723
 Se         4.8342987615       -4.9516929708        4.0974643468
 Se        -0.7556003326       -6.2829108386       -5.8406699955
 Se         1.9243057511       -7.4784768035       -2.6074198353
 Se         4.2543989663       -8.3809591814        0.7363809319
 Se         0.0386925703        7.3677075300       -0.4939635450
 Se         2.3791568525        6.5289221229        3.1400383851
 Se         0.0465974103        4.4270318221       -3.5936563407
 Se         2.5167269427        3.6273521599       -0.0581806204
 Se         4.7705604635        2.4670139639        3.1233546104
 Se         0.0435933033        1.9323944164       -6.9695738842
 Se         2.2733127965        0.7623703678       -3.6584263160
 Se         4.3816175435       -0.2841549253       -0.0177063702
 Se         6.9670500347       -1.1290204494        3.5565582379
 Se         2.2410869402       -2.2702007814       -6.6798205275
 Se         4.3723294721       -3.1971869108       -3.2130677403
 Se         6.4331938555       -4.1098532443        0.4136420186
 Se         4.8503033307        7.5509093293       -0.7463548497
 Se         4.8776288797        4.5477652435       -4.0091414448
 Se         7.0830986217        3.5950723552       -0.6434567968
 Se         4.7810064642        1.5273410534       -7.5566303287
 Se         6.9188050062        0.6130038217       -3.7081238627
 Se         9.1066871843       -0.0609359671       -0.0919647969
  C         6.9955771113       -6.9586634775       -2.8583426301
  H         7.7780160969       -7.1271873265       -3.6573399650
  O         5.8389952916       -6.4652991204       -3.1445809228
  O         7.2920676004       -7.2683568805       -1.6893132711
  C         3.3939431960       -6.2668607509       -6.9513074648
  H         4.3245440932       -6.8689211647       -7.0591687882
  O         3.0202466073       -5.7860511295       -5.7843136273
  O         2.6220129789       -6.1746538788       -7.9242101403
  C         6.3116555909       -2.9071154185       -7.4921130606
  H         7.0978863851       -3.7212906458       -7.4285512081
  O         6.0096715894       -2.3219711192       -6.3505932827
  O         5.9403243477       -2.4750431756       -8.6116316973
  C         8.9837561036       -3.3697375837       -3.4349055328
  H         9.9249943929       -3.8864043165       -3.1840078659
  O         8.5659407989       -3.4209184445       -4.6048832464
  O         8.2714489672       -2.6971151254       -2.5207012617
  C         9.7902109758       -4.6282247391        2.1768529346
  H        10.6284324694       -5.3337138149        2.3552924638
  O         9.7484501532       -4.1824896055        0.9942458601
  O         9.0219926648       -4.5705851174        3.1873629795
  C        -2.8252708508       -8.8894178348        5.3653894160
  H        -2.3915771747       -9.8892286280        5.4446685031
  O        -1.9808601030       -7.9304545651        5.0436955975
  O        -4.0908415257       -8.7280019527        5.4030844137
  C         3.0047406823       -8.6887063298        5.2919739424
  H         2.6853413808       -9.0312323512        6.2714246943
  O         1.9985977812       -8.3553887881        4.5599054594
  O         4.2197147413       -8.6069092298        4.9235206312
  C         2.8732291572       -5.7090624943        8.2322507888
  H         2.4095730423       -6.3582442170        8.9295273658
  O         2.2236878889       -4.8031284854        7.6183804854
  O         4.1525405945       -5.8988692439        8.1468427445
  C        -2.5324052264       -5.9090323801        8.5168983878
  H        -2.0058427467       -6.7599986745        9.0204193621
  O        -1.9189018681       -5.2527647032        7.5983339134
  O        -3.6521974131       -5.4981014961        8.8936623702
  C        -6.8661340661        2.3082426882        7.3884767521
  H        -7.2433530482        3.2983326111        7.3747512577
  O        -5.6189307919        2.1553364867        7.5292857639
  O        -7.6694328727        1.3672322100        7.2032576312
  C        -4.1128935570        6.2776012356        7.2258109093
  H        -5.2184092536        6.2949225170        7.4003980339
  O        -3.5215502414        5.2331222329        6.7794929280
  O        -3.5956064510        7.4679880815        7.3184340370
  C        -6.2584500423        7.1467273309        4.0778865765
  H        -7.2018864753        7.1620259062        4.6862261037
  O        -5.8042352338        6.0508881806        3.6277903665
  O        -5.6141473350        8.2227071687        3.8530055117
  C        -9.2670155991        2.9624473135        4.4549609073
  H        -9.7760873251        3.8307467380        4.7753730710
  O        -8.0580447847        3.0137717908        4.1153681461
  O       -10.0869615960        1.9755230626        4.3964141791
  C        -9.5997958208       -3.5202239981        4.2555074891
  H       -10.6284324694       -3.6062117458        4.7363993397
  O        -9.3836198173       -2.7271085544        3.2939504316
  O        -8.6749593009       -4.3055307223        4.7674147240
  C        -5.4063829718       -6.0836320759       -6.1576393485
  H        -6.0390997038       -6.5934387315       -6.8768176703
  O        -5.3157147411       -6.5042627408       -4.9638375967
  O        -4.7997118332       -5.0931497246       -6.6842330004
  C        -7.4812021438       -7.2683192216       -1.8337008205
  H        -7.8430239833       -7.7214409635       -2.7403108931
  O        -6.3847231004       -6.5596142310       -1.8855223803
  O        -8.0870004405       -7.4369608581       -0.7449951352
  C        -9.2637717352       -3.4248031045       -2.1287629167
  H        -9.5435102925       -4.0726156799       -2.9624854104
  O        -8.1685743898       -2.7562864935       -2.2769679175
  O        -9.8293124780       -3.4993302663       -1.0042472880
  C        -6.7198117275       -1.5155721631       -7.0057360974
  H        -7.7266400310       -1.9701098143       -7.1795729881
  O        -6.3208037730       -1.2812141421       -5.7891801227
  O        -6.0546670581       -1.2647410752       -8.0219575549
  C        -1.9610306020        5.6962737072       -7.4797868569
  H        -1.8068881661        6.7616764611       -7.4798700689
  O        -2.4613788677        5.1953402046       -6.4147373301
  O        -1.7592038190        5.0404242691       -8.5376948407
  C        -1.7153677193        9.0065729983       -3.7807068554
  H        -1.3518565997        9.2891789052       -4.8285272378
  O        -1.7735635219        7.7204009534       -3.5311974415
  O        -1.9589811591        9.8892286280       -2.9296575010
  C         2.5176986766        8.6527359013       -4.1276241396
  H         2.7356319561        9.0838176512       -5.0545617483
  O         2.0941304229        7.4607563111       -4.0382054964
  O         2.6632020791        9.4136986823       -3.1567247192
  C         1.7405814703        5.3615037054       -8.2026998584
  H         1.4592813282        6.4433815072       -8.3446733349
  O         2.2712544771        5.0744229803       -7.0359036782
  O         1.5374971892        4.4786315137       -9.0204193621
  C         9.4791869119        2.6134878200        3.9079418032
  H         9.6264681644        3.4611325178        4.5867541287
  O         8.5294682966        2.7206869475        3.0468687327
  O        10.1884170796        1.5361363159        4.0354546634
  C         6.6320899766        7.0427804887        3.3240585285
  H         7.5183451153        7.1103565644        4.0025867163
  O         6.4921259472        6.1579139584        2.4473334656
  O         5.8014508194        7.8970951585        3.5804466065
  C         4.7468288793        5.8510846562        6.9391041765
  H         5.6837062732        5.7110173508        7.4566454645
  O         4.3315486404        4.9881730889        6.0840680113
  O         4.1390624477        6.9214380767        7.1338855679
  C         7.5642974957        1.7429307679        7.1823006621
  H         8.1116275708        2.6102062210        7.6466333920
  O         6.7423080014        2.0330978891        6.2208765696
  O         7.8434776238        0.5800715711        7.5931108165
     227
 i =        1, time =        1.000, E =        -2.7858559903
 Cd        -8.6193182935        0.4795922488        3.4772487867
 Cd        -5.8717123232       -0.2571523458        7.1143206805
 Cd        -8.4082249706       -2.1542388818        0.3851625178
 Cd        -6.8926635014       -3.2917151064        3.9611109359
 Cd        -3.6901911338       -3.7004893398        7.3822847049
 Cd        -6.4420228254       -6.2357209229        0.4642987847
 Cd        -4.3123273523       -6.8295625055        3.9053539851
 Cd        -6.1164380429        3.8609156690        2.9057316645
 Cd        -3.6067266875        2.8812708910        6.5902950513
 Cd        -6.7534118063        1.1872550476       -0.3192284059
 Cd        -4.0444726239        0.0755158140        3.0501407694
 Cd        -1.7741928324       -0.3126904063        6.8335094861
 Cd        -6.3661235591       -1.4626852327       -3.4401679800
 Cd        -4.3614566384       -3.1217194474       -0.1745230324
 Cd        -2.2425899030       -3.6217012693        3.6335865825
 Cd         0.1785813325       -3.9616427704        7.0369298660
 Cd        -4.2694564462       -5.9880569246       -2.9988663197
 Cd        -2.2488686756       -6.7965281344        0.6791133113
 Cd         0.0677251583       -7.3030999400        3.8542820908
 Cd        -4.0801475790        7.4119053707        2.4184446257
 Cd        -1.6108979287        6.4880585621        6.2508386438
 Cd        -4.3325072688        4.8128511704       -0.6769257773
 Cd        -1.8303867451        3.6696545393        3.1588795814
 Cd         0.4898096677        3.1633802892        6.7204300748
 Cd        -4.5994430583        2.0001217185       -4.0891258707
 Cd        -2.1629345361        1.0182072039       -0.4517368040
 Cd         0.1384101418       -0.0680962504        3.1343820655
 Cd         2.6424401754       -0.6635301209        6.8957919115
 Cd        -4.1540818834       -0.5351229358       -6.9611213432
 Cd        -2.2031969926       -1.8490308962       -3.4901000304
 Cd         0.0357926403       -2.8474839513       -0.0251049929
 Cd         2.4397493688       -3.8216983495        3.5304185065
 Cd         4.5938420394       -4.2152201777        6.5946830477
 Cd        -2.6317797148       -4.5698926820       -6.0785106386
 Cd        -0.3609282444       -6.1209264489       -3.0631495843
 Cd         1.9864688851       -6.8522965977       -0.0374219407
 Cd         4.3579008020       -7.5048008417        3.0973180095
 Cd        -2.4319268922        8.2868038121       -1.2004155050
 Cd         0.1211436615        6.7911983573        2.0746006499
 Cd         2.2581340981        6.3879878986        5.9824051010
 Cd        -2.2739457457        5.5406287924       -4.1121684558
 Cd         0.1544523287        4.6148714117       -0.9822489860
 Cd         2.6164646600        3.7534758213        2.4612052316
 Cd         4.3939438460        2.5015373220        5.6447901611
 Cd        -2.3863449410        3.0936404640       -7.5399539018
 Cd        -0.1312504446        1.7709274957       -4.3473815235
 Cd         2.1531227788        0.8600884512       -0.9631924156
 Cd         4.3035505698       -0.4402362424        2.5249637374
 Cd         6.4920121489       -0.6517204061        6.0106127783
 Cd         0.4041063781       -0.5928076259       -7.0621984026
 Cd         2.1512545278       -1.8411667026       -3.9633186765
 Cd         4.1299898901       -2.9779758336       -0.5482380047
 Cd         6.9198081592       -3.7969078970        2.8857003960
 Cd         1.0695785841       -4.7690371897       -6.7907615599
 Cd         3.6506478061       -5.7624853486       -3.6176404105
 Cd         5.7328386907       -6.5639001052       -0.3327178562
 Cd         2.4549469993        8.1223881582       -1.1566377434
 Cd         4.4054077518        7.2898497389        1.7947948001
 Cd         2.3804000746        5.2451836032       -4.8086106052
 Cd         4.8188695861        4.7185125490       -1.4282638320
 Cd         6.7582475149        3.8402079398        2.0311244810
 Cd         2.6216115459        2.7829651236       -7.7033924456
 Cd         4.8491083227        1.7847671829       -4.5232402652
 Cd         6.7276442959        1.0648542113       -0.9631007774
 Cd         8.8867552915        0.4155587230        2.4348724344
 Cd         4.3617386341       -0.9228460954       -7.7309759018
 Cd         6.7427214976       -1.9756387249       -4.2012248002
 Cd         8.5291717939       -2.6208047724       -0.2527351024
 Se        -9.0550896602        0.2431955515        0.9181692513
 Se        -6.3728426819       -0.6564265688        4.4183918879
 Se        -3.9343946322       -1.3488501457        8.2970204393
 Se        -6.5831373370       -3.7426143841        1.3879713176
 Se        -4.5790851716       -4.2750411469        4.8599168865
 Se        -4.6123080846       -7.7769954740        1.5327364197
 Se        -6.6425926752        3.9855838568        0.4573492327
 Se        -4.0720540494        2.6208274006        3.9144789622
 Se        -1.6331571228        2.0119413241        7.9255959634
 Se        -6.7122261264        0.9832009498       -3.1653410562
 Se        -4.4071864592       -0.2112559251        0.3948367294
 Se        -2.0530320368       -1.1152394360        4.2595081331
 Se         0.4059731290       -1.5661282638        8.0653766319
 Se        -4.4161772895       -3.1302208595       -2.8048480443
 Se        -2.2372956394       -4.0916230950        0.9472386819
 Se         0.1529606298       -4.8127035646        4.4859236106
 Se        -2.4165278651       -7.4210436878       -2.0538806564
 Se        -0.0667255896       -7.8795784657        1.3095837632
 Se        -4.5526104639        7.5949344567       -0.0129194156
 Se        -1.8471074769        6.3633992080        3.5403937796
 Se         0.4037669370        5.8260994577        7.5864743780
 Se        -4.4664350428        4.5540857083       -3.3489815403
 Se        -2.0809691017        3.7152080722        0.3431773646
 Se         0.4983492285        2.6968679270        3.7288808330
 Se         2.7718323417        1.9959197511        7.6265357744
 Se        -4.6136079185        2.0748309753       -6.9049766333
 Se        -2.2789838520        0.8535011573       -3.1261471864
 Se         0.0146651649       -0.1632553599        0.3854540411
 Se         2.3129940892       -1.3186892938        3.9992715389
 Se         4.8632832046       -1.8842679145        7.7357626075
 Se        -2.0700217279       -1.9664721415       -6.4604548058
 Se        -0.0445604319       -3.1601013298       -2.8087806534
 Se         2.2322637134       -4.2315508097        0.7809800328
 Se         4.8362911763       -4.9533059342        4.0967501561
 Se        -0.7551579005       -6.2853277655       -5.8414124393
 Se         1.9250348548       -7.4793699000       -2.6078018880
 Se         4.2593035758       -8.3796744999        0.7361949685
 Se         0.0355288829        7.3687584874       -0.4914664279
 Se         2.3811112115        6.5252071868        3.1428639594
 Se         0.0438397124        4.4288788862       -3.5941571332
 Se         2.5164354633        3.6274168563       -0.0572508149
 Se         4.7729287610        2.4660152896        3.1252550440
 Se         0.0454927969        1.9302884455       -6.9708120792
 Se         2.2759839776        0.7649913878       -3.6571070184
 Se         4.3768013836       -0.2853519741       -0.0180738041
 Se         6.9677887135       -1.1294941776        3.5580587907
 Se         2.2372809292       -2.2685002729       -6.6838800962
 Se         4.3739212346       -3.1975174789       -3.2157775880
 Se         6.4332047377       -4.1117662326        0.4126748426
 Se         4.8520963126        7.5524534072       -0.7461143096
 Se         4.8776121286        4.5490750138       -4.0125712864
 Se         7.0859209700        3.5937423113       -0.6428853640
 Se         4.7822165741        1.5266994373       -7.5555633889
 Se         6.9189986566        0.6111815283       -3.7073627457
 Se         9.1071508041       -0.0626041878       -0.0925725308
  C         6.9966783259       -6.9498398843       -2.8612695586
  H         7.7649322095       -7.1224747738       -3.6684216540
  O         5.8447302527       -6.4674697274       -3.1399843584
  O         7.2900149742       -7.2748099756       -1.6949041200
  C         3.3950658607       -6.2673061216       -6.9491809247
  H         4.3444066225       -6.8936096686       -7.0753272229
  O         3.0188782992       -5.7911183485       -5.7830324606
  O         2.6181205383       -6.1692817109       -7.9242828559
  C         6.3106279424       -2.9078507044       -7.4910554106
  H         7.1299137504       -3.7048862282       -7.4466889051
  O         6.0083525872       -2.3184606235       -6.3483026839
  O         5.9397710232       -2.4746436589       -8.6126958380
  C         8.9774481791       -3.3708807520       -3.4296487450
  H         9.9250180562       -3.8774829974       -3.1826003730
  O         8.5688189698       -3.4153043122       -4.6047391744
  O         8.2720010539       -2.6969197109       -2.5207461200
  C         9.7980744852       -4.6252008393        2.1809980274
  H        10.6408655401       -5.3318691344        2.3887999993
  O         9.7475489137       -4.1810263345        0.9930194652
  O         9.0297959657       -4.5685668524        3.1872187397
  C        -2.8217310664       -8.8884380784        5.3598597326
  H        -2.4154187803       -9.9024293192        5.4343946394
  O        -1.9850506150       -7.9307777772        5.0425517193
  O        -4.0904205092       -8.7278049488        5.4047059430
  C         2.9969218272       -8.6916224728        5.2874266406
  H         2.6967725338       -9.0398269484        6.2934215078
  O         2.0001111596       -8.3583134089        4.5597290068
  O         4.2231845322       -8.6020310906        4.9178829749
  C         2.8793043076       -5.7053269809        8.2324278195
  H         2.3955873073       -6.3773024893        8.9303283437
  O         2.2198348270       -4.8092677583        7.6166804794
  O         4.1496792378       -5.9040827367        8.1541587763
  C        -2.5347132345       -5.9173478649        8.5220067764
  H        -2.0052498086       -6.7390725628        9.0096019785
  O        -1.9211276954       -5.2589255593        7.5984606283
  O        -3.6522286563       -5.5089845988        8.8932470289
  C        -6.8630680096        2.3027059659        7.3892069052
  H        -7.2086193538        3.3071349018        7.3885257928
  O        -5.6219687824        2.1592455515        7.5340973803
  O        -7.6699143099        1.3705949968        7.1999730645
  C        -4.1169964367        6.2828043775        7.2281917947
  H        -5.2418933127        6.2896177269        7.3832000201
  O        -3.5272828817        5.2293295559        6.7740682735
  O        -3.5914048475        7.4674896892        7.3182292165
  C        -6.2567432083        7.1462437979        4.0780925399
  H        -7.2111390447        7.1649409639        4.6689854642
  O        -5.8091403987        6.0485249848        3.6282920009
  O        -5.6136880996        8.2212123647        3.8495849430
  C        -9.2742213700        2.9617575142        4.4604768917
  H        -9.7855372140        3.8838940690        4.7760086716
  O        -8.0591515357        3.0118599997        4.1195222879
  O       -10.0818107764        1.9799917014        4.3926413055
  C        -9.6032805429       -3.5282206843        4.2551675015
  H       -10.5971720209       -3.6001750875        4.7566807035
  O        -9.3834412561       -2.7227619828        3.2942503120
  O        -8.6801021549       -4.3025387587        4.7636625119
  C        -5.4081382419       -6.0792349129       -6.1561955970
  H        -6.0546960796       -6.5859836395       -6.8890942905
  O        -5.3115497188       -6.5043472564       -4.9661625852
  O        -4.7992993389       -5.0929613778       -6.6855568354
  C        -7.4874944104       -7.2705749008       -1.8347938655
  H        -7.8388434959       -7.7173330376       -2.7530342297
  O        -6.3890714112       -6.5551739334       -1.8847801847
  O        -8.0721640451       -7.4412574062       -0.7461778691
  C        -9.2562798618       -3.4269974853       -2.1219763910
  H        -9.5270787848       -4.0663584857       -2.9594189931
  O        -8.1700441829       -2.7555800774       -2.2726410853
  O        -9.8245530541       -3.4942776545       -1.0095313755
  C        -6.7207106802       -1.5101433033       -7.0046019214
  H        -7.7450574417       -1.9674181007       -7.1698505571
  O        -6.3199857559       -1.2781339380       -5.7996653226
  O        -6.0641695275       -1.2638015615       -8.0159968695
  C        -1.9629102411        5.6954907480       -7.4853197052
  H        -1.7770888886        6.7764005651       -7.4923242406
  O        -2.4612636138        5.1871516021       -6.4092288160
  O        -1.7560762613        5.0414524193       -8.5288862416
  C        -1.7168959144        9.0075122964       -3.7839136857
  H        -1.3493405476        9.2660238074       -4.8465614694
  O        -1.7697696761        7.7203118537       -3.5247189041
  O        -1.9636481774        9.8899462328       -2.9412329443
  C         2.5062426809        8.6538904502       -4.1272905509
  H         2.7131102182        9.0638249498       -5.0476060874
  O         2.0943801942        7.4539002494       -4.0305102488
  O         2.6628032781        9.4114911204       -3.1557439444
  C         1.7411621750        5.3672432391       -8.1968698558
  H         1.4358383610        6.4416008070       -8.3632925476
  O         2.2780097388        5.0769920859       -7.0420908049
  O         1.5310018852        4.4837548232       -9.0178885629
  C         9.4768897483        2.6096284212        3.8999976638
  H         9.6131090334        3.4671477718        4.5843902861
  O         8.5285858745        2.7174436048        3.0496932043
  O        10.1889736611        1.5405203802        4.0336240198
  C         6.6326628905        7.0383103997        3.3282007305
  H         7.5082674956        7.1289998248        4.0070788575
  O         6.4947382045        6.1608952590        2.4467845001
  O         5.7959457316        7.9032081404        3.5818683035
  C         4.7447656902        5.8524854409        6.9354039487
  H         5.7085862008        5.7040540943        7.4370666698
  O         4.3288439147        4.9886493594        6.0815869325
  O         4.1467043027        6.9227021515        7.1378026597
  C         7.5603390641        1.7452806869        7.1878894373
  H         8.1158840311        2.6116602203        7.6593692779
  O         6.7462515510        2.0302631712        6.2245612430
  O         7.8437966868        0.5824135744        7.5898617221
     227
 i =        2, time =        2.000, E =        -2.8363695585
 Cd        -8.6169047378        0.4781187795        3.4770837346
 Cd        -5.8714673159       -0.2574839280        7.1133468079
 Cd        -8.4089015743       -2.1555855417        0.3833905008
 Cd        -6.8894363852       -3.2935630152        3.9622086909