     227
 i =        0, time =        0.000, E =       -39.2190598249
 Cd        -8.6216924880        0.4810107428        3.4775887729
 Cd        -5.8723589632       -0.2566559957        7.1151373767
 Cd        -8.4076147924       -2.1531404527        0.3867588804
 Cd        -6.8957642261       -3.2896665849        3.9600318291
 Cd        -3.6930098048       -3.6992689615        7.3819491709
 Cd        -6.4429261463       -6.2347087238        0.4622469067
 Cd        -4.3123952394       -6.8285875372        3.9039095072
 Cd        -6.1141073353        3.8626235599        2.9066844924
 Cd        -3.6048790416        2.8797284733        6.5917986711
 Cd        -6.7531255596        1.1841266196       -0.3182182747
 Cd        -4.0437606329        0.0729837467        3.0511954168
 Cd        -1.7753257667       -0.3121054857        6.8316599018
 Cd        -6.3661028473       -1.4630135273       -3.4383357626
 Cd        -4.3602814436       -3.1214810613       -0.1759283953
 Cd        -2.2424276819       -3.6242998489        3.6335413818
 Cd         0.1757294635       -3.9625201566        7.0364714760
 Cd        -4.2692200317       -5.9860442556       -3.0005266361
 Cd        -2.2482225396       -6.7972628816        0.6786391664
 Cd         0.0669003827       -7.3030327295        3.8545421700
 Cd        -4.0792754193        7.4105475565        2.4175118797
 Cd        -1.6116442377        6.4880648240        6.2478272306
 Cd        -4.3308002626        4.8127262164       -0.6762739309
 Cd        -1.8326132452        3.6694977750        3.1598212265
 Cd         0.4939817277        3.1637060931        6.7202662426
 Cd        -4.5980154021        1.9988297698       -4.0880170010
 Cd        -2.1651194586        1.0165564496       -0.4536921834
 Cd         0.1376109507       -0.0659106884        3.1336818174
 Cd         2.6419074521       -0.6636939286        6.8958319365
 Cd        -4.1515129292       -0.5348426091       -6.9620217917
 Cd        -2.2012490343       -1.8491984656       -3.4894107829
 Cd         0.0359311218       -2.8494155653       -0.0264680683
 Cd         2.4407298775       -3.8224684908        3.5289587884
 Cd         4.5907434619       -4.2169180472        6.5928471603
 Cd        -2.6321953796       -4.5685798778       -6.0773989300
 Cd        -0.3638438279       -6.1221236347       -3.0620735359
 Cd         1.9882729153       -6.8506852632       -0.0376753302
 Cd         4.3604701588       -7.5063202656        3.0981086138
 Cd        -2.4313710890        8.2839908015       -1.2010761441
 Cd         0.1210964618        6.7915494583        2.0748938605
 Cd         2.2602783261        6.3879934074        5.9824457591
 Cd        -2.2743307721        5.5403016700       -4.1096429978
 Cd         0.1552258413        4.6164378819       -0.9814446932
 Cd         2.6173372932        3.7540356816        2.4616712460
 Cd         4.3934694910        2.5024270436        5.6448470259
 Cd        -2.3839877703        3.0961459608       -7.5397423510
 Cd        -0.1308699873        1.7716472388       -4.3458913396
 Cd         2.1522040622        0.8595996928       -0.9600505658
 Cd         4.3027041934       -0.4425155449        2.5248589789
 Cd         6.4943132815       -0.6514444341        6.0110723312
 Cd         0.4032906214       -0.5920449882       -7.0625722312
 Cd         2.1504065746       -1.8410095193       -3.9631978812
 Cd         4.1282053355       -2.9764966895       -0.5499119195
 Cd         6.9189885741       -3.8001688729        2.8840486736
 Cd         1.0693858855       -4.7693596381       -6.7909688629
 Cd         3.6529341800       -5.7620820022       -3.6150795142
 Cd         5.7341856059       -6.5625995016       -0.3323817960
 Cd         2.4532379782        8.1225833618       -1.1556872380
 Cd         4.4025673150        7.2904811152        1.7928276254
 Cd         2.3800547108        5.2453457502       -4.8107637235
 Cd         4.8184663347        4.7191125514       -1.4277792117
 Cd         6.7589411702        3.8390778732        2.0295448973
 Cd         2.6210634084        2.7844913241       -7.7035228004
 Cd         4.8495943395        1.7843685348       -4.5225056138
 Cd         6.7261500983        1.0662237140       -0.9642295531
 Cd         8.8881450478        0.4141445330        2.4369093904
 Cd         4.3615782352       -0.9213178924       -7.7328888960
 Cd         6.7438649008       -1.9767569930       -4.2031112584
 Cd         8.5272445020       -2.6218905711       -0.2551455218
 Se        -9.0557725106        0.2424574140        0.9180313808
 Se        -6.3745872764       -0.6570220647        4.4225742627
 Se        -3.9358548519       -1.3506397678        8.2925868769
 Se        -6.5830028390       -3.7408669090        1.3890860046
 Se        -4.5802302415       -4.2716541219        4.8585926421
 Se        -4.6110671623       -7.7792240778        1.5343213278
 Se        -6.6407812351        3.9866809498        0.4586064126
 Se        -4.0705866514        2.6241591830        3.9150270775
 Se        -1.6315747320        2.0143859544        7.9219454430
 Se        -6.7106235468        0.9827493806       -3.1628202938
 Se        -4.4077684895       -0.2106461950        0.3970531668
 Se        -2.0534879979       -1.1190641497        4.2604482105
 Se         0.4069246601       -1.5676855049        8.0617057342
 Se        -4.4126107232       -3.1307459794       -2.8028288282
 Se        -2.2371864822       -4.0884616040        0.9473336128
 Se         0.1541797359       -4.8148952714        4.4843326207
 Se        -2.4147106009       -7.4199706225       -2.0529393442
 Se        -0.0662571417       -7.8800811154        1.3078284855
 Se        -4.5519687636        7.5920037884       -0.0122560791
 Se        -1.8482840651        6.3647212661        3.5390459072
 Se         0.4006735392        5.8241498358        7.5878867146
 Se        -4.4655945585        4.5529209660       -3.3484418515
 Se        -2.0798083538        3.7153034916        0.3451575142
 Se         0.4973892782        2.6967113851        3.7286137790
 Se         2.7724753484        1.9958260876        7.6298945277
 Se        -4.6126224962        2.0736182894       -6.9031574659
 Se        -2.2770211290        0.8531533747       -3.1284312065
 Se         0.0138865169       -0.1636477002        0.3858468104
 Se         2.3115473387       -1.3198431962        4.0017354986
 Se         4.8624545925       -1.8855864388        7.7371297607
 Se        -2.0700877949       -1.9675257511       -6.4603372509
 Se        -0.0447057629       -3.1582708631       -2.8090856920
 Se         2.2343306950       -4.2299664240        0.7817840723
 Se         4.8342987615       -4.9516929708        4.0974643468
 Se        -0.7556003326       -6.2829108386       -5.8406699955
 Se         1.9243057511       -7.4784768035       -2.6074198353
 Se         4.2543989663       -8.3809591814        0.7363809319
 Se         0.0386925703        7.3677075300       -0.4939635450
 Se         2.3791568525        6.5289221229        3.1400383851
 Se         0.0465974103        4.4270318221       -3.5936563407
 Se         2.5167269427        3.6273521599       -0.0581806204
 Se         4.7705604635        2.4670139639        3.1233546104
 Se         0.0435933033        1.9323944164       -6.9695738842
 Se         2.2733127965        0.7623703678       -3.6584263160
 Se         4.3816175435       -0.2841549253       -0.0177063702
 Se         6.9670500347       -1.1290204494        3.5565582379
 Se         2.2410869402       -2.2702007814       -6.6798205275
 Se         4.3723294721       -3.1971869108       -3.2130677403
 Se         6.4331938555       -4.1098532443        0.4136420186
 Se         4.8503033307        7.5509093293       -0.7463548497
 Se         4.8776288797        4.5477652435       -4.0091414448
 Se         7.0830986217        3.5950723552       -0.6434567968
 Se         4.7810064642        1.5273410534       -7.5566303287
 Se         6.9188050062        0.6130038217       -3.7081238627
 Se         9.1066871843       -0.0609359671       -0.0919647969
  C         6.9955771113       -6.9586634775       -2.8583426301
  H         7.7780160969       -7.1271873265       -3.6573399650
  O         5.8389952916       -6.4652991204       -3.1445809228
  O         7.2920676004       -7.2683568805       -1.6893132711
  C         3.3939431960       -6.2668607509       -6.9513074648
  H         4.3245440932       -6.8689211647       -7.0591687882
  O         3.0202466073       -5.7860511295       -5.7843136273
  O         2.6220129789       -6.1746538788       -7.9242101403
  C         6.3116555909       -2.9071154185       -7.4921130606
  H         7.0978863851       -3.7212906458       -7.4285512081
  O         6.0096715894       -2.3219711192       -6.3505932827
  O         5.9403243477       -2.4750431756       -8.6116316973
  C         8.9837561036       -3.3697375837       -3.4349055328
  H         9.9249943929       -3.8864043165       -3.1840078659
  O         8.5659407989       -3.4209184445       -4.6048832464
  O         8.2714489672       -2.6971151254       -2.5207012617
  C         9.7902109758       -4.6282247391        2.1768529346
  H        10.6284324694       -5.3337138149        2.3552924638
  O         9.7484501532       -4.1824896055        0.9942458601
  O         9.0219926648       -4.5705851174        3.1873629795
  C        -2.8252708508       -8.8894178348        5.3653894160
  H        -2.3915771747       -9.8892286280        5.4446685031
  O        -1.9808601030       -7.9304545651        5.0436955975
  O        -4.0908415257       -8.7280019527        5.4030844137
  C         3.0047406823       -8.6887063298        5.2919739424
  H         2.6853413808       -9.0312323512        6.2714246943
  O         1.9985977812       -8.3553887881        4.5599054594
  O         4.2197147413       -8.6069092298        4.9235206312
  C         2.8732291572       -5.7090624943        8.2322507888
  H         2.4095730423       -6.3582442170        8.9295273658
  O         2.2236878889       -4.8031284854        7.6183804854
  O         4.1525405945       -5.8988692439        8.1468427445
  C        -2.5324052264       -5.9090323801        8.5168983878
  H        -2.0058427467       -6.7599986745        9.0204193621
  O        -1.9189018681       -5.2527647032        7.5983339134
  O        -3.6521974131       -5.4981014961        8.8936623702
  C        -6.8661340661        2.3082426882        7.3884767521
  H        -7.2433530482        3.2983326111        7.3747512577
  O        -5.6189307919        2.1553364867        7.5292857639
  O        -7.6694328727        1.3672322100        7.2032576312
  C        -4.1128935570        6.2776012356        7.2258109093
  H        -5.2184092536        6.2949225170        7.4003980339
  O        -3.5215502414        5.2331222329        6.7794929280
  O        -3.5956064510        7.4679880815        7.3184340370
  C        -6.2584500423        7.1467273309        4.0778865765
  H        -7.2018864753        7.1620259062        4.6862261037
  O        -5.8042352338        6.0508881806        3.6277903665
  O        -5.6141473350        8.2227071687        3.8530055117
  C        -9.2670155991        2.9624473135        4.4549609073
  H        -9.7760873251        3.8307467380        4.7753730710
  O        -8.0580447847        3.0137717908        4.1153681461
  O       -10.0869615960        1.9755230626        4.3964141791
  C        -9.5997958208       -3.5202239981        4.2555074891
  H       -10.6284324694       -3.6062117458        4.7363993397
  O        -9.3836198173       -2.7271085544        3.2939504316
  O        -8.6749593009       -4.3055307223        4.7674147240
  C        -5.4063829718       -6.0836320759       -6.1576393485
  H        -6.0390997038       -6.5934387315       -6.8768176703
  O        -5.3157147411       -6.5042627408       -4.9638375967
  O        -4.7997118332       -5.0931497246       -6.6842330004
  C        -7.4812021438       -7.2683192216       -1.8337008205
  H        -7.8430239833       -7.7214409635       -2.7403108931
  O        -6.3847231004       -6.5596142310       -1.8855223803
  O        -8.0870004405       -7.4369608581       -0.7449951352
  C        -9.2637717352       -3.4248031045       -2.1287629167
  H        -9.5435102925       -4.0726156799       -2.9624854104
  O        -8.1685743898       -2.7562864935       -2.2769679175
  O        -9.8293124780       -3.4993302663       -1.0042472880
  C        -6.7198117275       -1.5155721631       -7.0057360974
  H        -7.7266400310       -1.9701098143       -7.1795729881
  O        -6.3208037730       -1.2812141421       -5.7891801227
  O        -6.0546670581       -1.2647410752       -8.0219575549
  C        -1.9610306020        5.6962737072       -7.4797868569
  H        -1.8068881661        6.7616764611       -7.4798700689
  O        -2.4613788677        5.1953402046       -6.4147373301
  O        -1.7592038190        5.0404242691       -8.5376948407
  C        -1.7153677193        9.0065729983       -3.7807068554
  H        -1.3518565997        9.2891789052       -4.8285272378
  O        -1.7735635219        7.7204009534       -3.5311974415
  O        -1.9589811591        9.8892286280       -2.9296575010
  C         2.5176986766        8.6527359013       -4.1276241396
  H         2.7356319561        9.0838176512       -5.0545617483
  O         2.0941304229        7.4607563111       -4.0382054964
  O         2.6632020791        9.4136986823       -3.1567247192
  C         1.7405814703        5.3615037054       -8.2026998584
  H         1.4592813282        6.4433815072       -8.3446733349
  O         2.2712544771        5.0744229803       -7.0359036782
  O         1.5374971892        4.4786315137       -9.0204193621
  C         9.4791869119        2.6134878200        3.9079418032
  H         9.6264681644        3.4611325178        4.5867541287
  O         8.5294682966        2.7206869475        3.0468687327
  O        10.1884170796        1.5361363159        4.0354546634
  C         6.6320899766        7.0427804887        3.3240585285
  H         7.5183451153        7.1103565644        4.0025867163
  O         6.4921259472        6.1579139584        2.4473334656
  O         5.8014508194        7.8970951585        3.5804466065
  C         4.7468288793        5.8510846562        6.9391041765
  H         5.6837062732        5.7110173508        7.4566454645
  O         4.3315486404        4.9881730889        6.0840680113
  O         4.1390624477        6.9214380767        7.1338855679
  C         7.5642974957        1.7429307679        7.1823006621
  H         8.1116275708        2.6102062210        7.6466333920
  O         6.7423080014        2.0330978891        6.2208765696
  O         7.8434776238        0.5800715711        7.5931108165
     227
 i =        1, time =        1.000, E =       -39.2363075438
 Cd        -8.6193347767        0.4796638470        3.4772503049
 Cd        -5.8717395022       -0.2570567170        7.1143376304
 Cd        -8.4083066866       -2.1542771420        0.3851297585
 Cd        -6.8926896554       -3.2917063803        3.9610973939
 Cd        -3.6901879689       -3.7005608085        7.3823765285
 Cd        -6.4420765429       -6.2357939831        0.4642234159
 Cd        -4.3123169280       -6.8296594494        3.9053990976
 Cd        -6.1165125329        3.8609514170        2.9057758459
 Cd        -3.6068010856        2.8813143004        6.5903872180
 Cd        -6.7534805999        1.1873024931       -0.3192584867
 Cd        -4.0445726054        0.0755250908        3.0501868092
 Cd        -1.7741667850       -0.3127040222        6.8336629635
 Cd        -6.3662128350       -1.4626862910       -3.4402153621
 Cd        -4.3614948974       -3.1217125688       -0.1745016212
 Cd        -2.2426148403       -3.6217092182        3.6336313260
 Cd         0.1786182645       -3.9616729267        7.0369994384
 Cd        -4.2695575077       -5.9881493576       -2.9988967324
 Cd        -2.2488705056       -6.7966222845        0.6790520019
 Cd         0.0677348425       -7.3031723121        3.8543088825
 Cd        -4.0802777830        7.4118912064        2.4184889228
 Cd        -1.6110024488        6.4880460000        6.2509293257
 Cd        -4.3326266511        4.8128802376       -0.6769815593
 Cd        -1.8304455329        3.6696900893        3.1588777305
 Cd         0.4898188552        3.1633302489        6.7205736737
 Cd        -4.5995567079        2.0002033653       -4.0891509117
 Cd        -2.1630120237        1.0182327805       -0.4517790610
 Cd         0.1384347473       -0.0681069359        3.1344496383
 Cd         2.6424193970       -0.6635256035        6.8959474906
 Cd        -4.1542333339       -0.5351308284       -6.9611420025
 Cd        -2.2032437552       -1.8490402500       -3.4901195202
 Cd         0.0357905311       -2.8475870508       -0.0251184144
 Cd         2.4397463242       -3.8217313319        3.5304320203
 Cd         4.5937994301       -4.2152768964        6.5947841235
 Cd        -2.6318480098       -4.5699509568       -6.0785667310
 Cd        -0.3609204211       -6.1210745189       -3.0632010341
 Cd         1.9864518178       -6.8524170484       -0.0374400740
 Cd         4.3578594866       -7.5048755160        3.0973720441
 Cd        -2.4319211245        8.2868236473       -1.2005413761
 Cd         0.1211445009        6.7912402247        2.0746200110
 Cd         2.2582703853        6.3879743363        5.9825184977
 Cd        -2.2739621152        5.5406715552       -4.1122420033
 Cd         0.1544395338        4.6149245780       -0.9823212085
 Cd         2.6165006523        3.7534589016        2.4611969853
 Cd         4.3940353980        2.5016170948        5.6448491657
 Cd        -2.3863751876        3.0937813613       -7.5399386933
 Cd        -0.1312518199        1.7710219699       -4.3474170657
 Cd         2.1532281719        0.8601128985       -0.9632348578
 Cd         4.3036254200       -0.4401944951        2.5249431583
 Cd         6.4920966321       -0.6516518546        6.0106811996
 Cd         0.4041023755       -0.5928217402       -7.0622073264
 Cd         2.1513441275       -1.8412146996       -3.9633698983
 Cd         4.1300965033       -2.9780003024       -0.5482706540
 Cd         6.9198570881       -3.7969182433        2.8856771102
 Cd         1.0697267024       -4.7691576488       -6.7907392903
 Cd         3.6507388692       -5.7625561754       -3.6177121779
 Cd         5.7329330741       -6.5639632379       -0.3328087411
 Cd         2.4549742427        8.1224152678       -1.1568038086
 Cd         4.4055474467        7.2898451748        1.7948579667
 Cd         2.3804195861        5.2452902249       -4.8086444722
 Cd         4.8189686375        4.7185511552       -1.4283372681
 Cd         6.7583282239        3.8402268219        2.0311488164
 Cd         2.6216078271        2.7830901671       -7.7034148420
 Cd         4.8492159329        1.7848003018       -4.5232389495
 Cd         6.7277640903        1.0648844992       -0.9631758875
 Cd         8.8867804227        0.4156302789        2.4348817618
 Cd         4.3618779299       -0.9229133711       -7.7309346866
 Cd         6.7428021953       -1.9756925334       -4.2012401442
 Cd         8.5291981077       -2.6208368902       -0.2528144298
 Se        -9.0548619994        0.2430708323        0.9182158233
 Se        -6.3727812767       -0.6564999804        4.4183645052
 Se        -3.9344313708       -1.3489410330        8.2967912360
 Se        -6.5830707004       -3.7426150526        1.3879310271
 Se        -4.5789719445       -4.2750684162        4.8598800048
 Se        -4.6122782820       -7.7767187679        1.5328057369
 Se        -6.6423722806        3.9854729514        0.4573927303
 Se        -4.0718934970        2.6208083540        3.9144134148
 Se        -1.6331739425        2.0119322499        7.9252459498
 Se        -6.7120251892        0.9830851176       -3.1652574390
 Se        -4.4070961779       -0.2112357612        0.3949040701
 Se        -2.0529791437       -1.1152166315        4.2594263405
 Se         0.4059658683       -1.5662257797        8.0651197025
 Se        -4.4160475744       -3.1301447027       -2.8047808745
 Se        -2.2372801725       -4.0915579362        0.9472338417
 Se         0.1529613146       -4.8126454105        4.4858662993
 Se        -2.4165418075       -7.4207473276       -2.0539046415
 Se        -0.0667281849       -7.8793188164        1.3096558952
 Se        -4.5523216709        7.5948674628       -0.0128557445
 Se        -1.8469745509        6.3633745569        3.5403099390
 Se         0.4037434510        5.8260972919        7.5861718354
 Se        -4.4662161042        4.5540179892       -3.3489264099
 Se        -2.0808765099        3.7151742128        0.3431269199
 Se         0.4982680590        2.6968824181        3.7288224791
 Se         2.7717782968        1.9958555941        7.6262019514
 Se        -4.6133458681        2.0746706222       -6.9049231282
 Se        -2.2788877294        0.8534062394       -3.1261496013
 Se         0.0146682967       -0.1632784258        0.3854539095
 Se         2.3130282164       -1.3186439217        3.9991768357
 Se         4.8632376793       -1.8843029987        7.7354578502
 Se        -2.0700306846       -1.9664379244       -6.4603756683
 Se        -0.0445902794       -3.1599958363       -2.8087459165
 Se         2.2322311432       -4.2314319786        0.7809418367
 Se         4.8362395485       -4.9532114366        4.0967478647
 Se        -0.7551766732       -6.2850355535       -5.8413887403
 Se         1.9249964982       -7.4790537928       -2.6076952013
 Se         4.2593236849       -8.3794124025        0.7362887998
 Se         0.0355802177        7.3686460458       -0.4912741657
 Se         2.3810174542        6.5251902621        3.1427650191
 Se         0.0438274544        4.4287627058       -3.5940925320
 Se         2.5163134578        3.6274368291       -0.0572303924
 Se         4.7728244651        2.4660094474        3.1252726297
 Se         0.0454887606        1.9300459086       -6.9706864232
 Se         2.2758469011        0.7649152437       -3.6570013643
 Se         4.3766797198       -0.2853833115       -0.0180005088
 Se         6.9676704961       -1.1295593758        3.5580851598
 Se         2.2370732663       -2.2683317326       -6.6838373101
 Se         4.3737239594       -3.1974597717       -3.2156398309
 Se         6.4331035260       -4.1117307266        0.4127839237
 Se         4.8518318618        7.5523849134       -0.7459295146
 Se         4.8773902461        4.5489599670       -4.0124591970
 Se         7.0856864542        3.5936567720       -0.6427385302
 Se         4.7819690857        1.5266193453       -7.5555286092
 Se         6.9187521806        0.6111480736       -3.7072681612
 Se         9.1069907738       -0.0627151473       -0.0924090895
  C         6.9966395668       -6.9496281145       -2.8612793714
  H         7.7649322095       -7.1224747738       -3.6684216540
  O         5.8443645204       -6.4673332774       -3.1397410856
  O         7.2896123199       -7.2745175847       -1.6946153035
  C         3.3951601455       -6.2671901966       -6.9490663156
  H         4.3444066225       -6.8936096686       -7.0753272229
  O         3.0186596914       -5.7907599954       -5.7827295243
  O         2.6178150580       -6.1688699816       -7.9240125648
  C         6.3106238443       -2.9079217562       -7.4908175404
  H         7.1299137504       -3.7048862282       -7.4466889051
  O         6.0081936283       -2.3182101609       -6.3481514214
  O         5.9393624490       -2.4743175797       -8.6124246799
  C         8.9772782175       -3.3709235795       -3.4295654649
  H         9.9250180562       -3.8774829974       -3.1826003730
  O         8.5683903698       -3.4150288999       -4.6045418867
  O         8.2716409381       -2.6969159811       -2.5206154884
  C         9.7979138025       -4.6251377851        2.1809342883
  H        10.6408655401       -5.3318691344        2.3887999993
  O         9.7471202073       -4.1806492980        0.9929273015
  O         9.0292332799       -4.5683013956        3.1871186430
  C        -2.8216669932       -8.8882699293        5.3598608374
  H        -2.4154187803       -9.9024293192        5.4343946394
  O        -1.9850088928       -7.9304686612        5.0422732306
  O        -4.0903606956       -8.7273053970        5.4044194026
  C         2.9968774608       -8.6914451158        5.2874541101
  H         2.6967725338       -9.0398269484        6.2934215078
  O         2.0000188275       -8.3579283909        4.5595457464
  O         4.2231383759       -8.6016864977        4.9174758113
  C         2.8792148279       -5.7053386132        8.2322905886
  H         2.3955873073       -6.3773024893        8.9303283437
  O         2.2197369720       -4.8090615678        7.6162307979
  O         4.1496621007       -5.9037263034        8.1536705566
  C        -2.5346718650       -5.9173680809        8.5218022768
  H        -2.0052498086       -6.7390725628        9.0096019785
  O        -1.9211825329       -5.2583931907        7.5983099932
  O        -3.6522008710       -5.5085904371        8.8928024760
  C        -6.8630330413        2.3027334464        7.3889736593
  H        -7.2086193538        3.3071349018        7.3885257928
  O        -5.6216909501        2.1589956742        7.5337411407
  O        -7.6694471383        1.3702868659        7.1999013886
  C        -4.1170517666        6.2826994097        7.2280299013
  H        -5.2418933127        6.2896177269        7.3832000201
  O        -3.5269163322        5.2291508667        6.7737973230
  O        -3.5909860699        7.4672240875        7.3178683661
  C        -6.2566634681        7.1460996979        4.0781524925
  H        -7.2111390447        7.1649409639        4.6689854642
  O        -5.8088078221        6.0483809080        3.6281000096
  O        -5.6131804714        8.2208488948        3.8492775601
  C        -9.2740396274        2.9616551707        4.4605323544
  H        -9.7855372140        3.8838940690        4.7760086716
  O        -8.0588471578        3.0117115561        4.1193474521
  O       -10.0813703955        1.9796291301        4.3924983447
  C        -9.6031561715       -3.5281503597        4.2550935826
  H       -10.5971720209       -3.6001750875        4.7566807035
  O        -9.3828832363       -2.7226418692        3.2942499454
  O        -8.6796724604       -4.3022523210        4.7634780248
  C        -5.4081407371       -6.0791140393       -6.1560665206
  H        -6.0546960796       -6.5859836395       -6.8890942905
  O        -5.3111663649       -6.5039824564       -4.9658123761
  O        -4.7988454369       -5.0927798694       -6.6852776840
  C        -7.4874162503       -7.2703807417       -1.8348267359
  H        -7.8388434959       -7.7173330376       -2.7530342297
  O        -6.3887985230       -6.5548537398       -1.8844781959
  O        -8.0717370992       -7.4408876083       -0.7458920810
  C        -9.2561021359       -3.4270645941       -2.1219193826
  H        -9.5270787848       -4.0663584857       -2.9594189931
  O        -8.1697451763       -2.7553906949       -2.2724375433
  O        -9.8241430662       -3.4940495818       -1.0093070993
  C        -6.7206390967       -1.5102589422       -7.0044740391
  H        -7.7450574417       -1.9674181007       -7.1698505571
  O        -6.3194888941       -1.2782070718       -5.7993807993
  O        -6.0636854636       -1.2637588948       -8.0156775765
  C        -1.9627785234        5.6954605425       -7.4851956690
  H        -1.7770888886        6.7764005651       -7.4923242406
  O        -2.4610403857        5.1868256678       -6.4090509137
  O        -1.7561798105        5.0409389522       -8.5284855936
  C        -1.7167661996        9.0073679876       -3.7839277367
  H        -1.3493405476        9.2660238074       -4.8465614694
  O        -1.7699695898        7.7199956715       -3.5244328768
  O        -1.9637104734        9.8894770206       -2.9408148627
  C         2.5061294728        8.6537652619       -4.1272930560
  H         2.7131102182        9.0638249498       -5.0476060874
  O         2.0943666000        7.4535480198       -4.0304377044
  O         2.6626333238        9.4112139744       -3.1553370663
  C         1.7410091560        5.3672263649       -8.1967498818
  H         1.4358383610        6.4416008070       -8.3632925476
  O         2.2779776275        5.0765621141       -7.0417224209
  O         1.5312761975        4.4833601162       -9.0174668291
  C         9.4766698884        2.6096028728        3.9000579321
  H         9.6131090334        3.4671477718        4.5843902861
  O         8.5282971718        2.7172490437        3.0495045719
  O        10.1885974084        1.5402719987        4.0332535031
  C         6.6325814011        7.0381437098        3.3282715503
  H         7.5082674956        7.1289998248        4.0070788575
  O         6.4943101367        6.1606058842        2.4467324567
  O         5.7955519428        7.9029424576        3.5814748012
  C         4.7448127768        5.8524114739        6.9352410664
  H         5.7085862008        5.7040540943        7.4370666698
  O         4.3284688922        4.9884879318        6.0813358203
  O         4.1462812625        6.9225332270        7.1373811357
  C         7.5603000338        1.7452887658        7.1877035497
  H         8.1158840311        2.6116602203        7.6593692779
  O         6.7458802697        2.0299972365        6.2243743707
  O         7.8435175152        0.5821998121        7.5893843951
     227
 i =        2, time =        2.000, E =       -39.2721782485
 Cd        -8.6169696669        0.4784043308        3.4770890521
 Cd        -5.8715756790       -0.2571014850        7.1134153523
 Cd        -8.4092275225       -2.1557386231        0.3832583966
 Cd        -6.8895240734       -3.2935337429        3.9621356057