     227
 i =        0, time =        0.000, E =       -10.2667018922
 Cd        -8.6216924880        0.4810107428        3.4775887729
 Cd        -5.8723589632       -0.2566559957        7.1151373767
 Cd        -8.4076147924       -2.1531404527        0.3867588804
 Cd        -6.8957642261       -3.2896665849        3.9600318291
 Cd        -3.6930098048       -3.6992689615        7.3819491709
 Cd        -6.4429261463       -6.2347087238        0.4622469067
 Cd        -4.3123952394       -6.8285875372        3.9039095072
 Cd        -6.1141073353        3.8626235599        2.9066844924
 Cd        -3.6048790416        2.8797284733        6.5917986711
 Cd        -6.7531255596        1.1841266196       -0.3182182747
 Cd        -4.0437606329        0.0729837467        3.0511954168
 Cd        -1.7753257667       -0.3121054857        6.8316599018
 Cd        -6.3661028473       -1.4630135273       -3.4383357626
 Cd        -4.3602814436       -3.1214810613       -0.1759283953
 Cd        -2.2424276819       -3.6242998489        3.6335413818
 Cd         0.1757294635       -3.9625201566        7.0364714760
 Cd        -4.2692200317       -5.9860442556       -3.0005266361
 Cd        -2.2482225396       -6.7972628816        0.6786391664
 Cd         0.0669003827       -7.3030327295        3.8545421700
 Cd        -4.0792754193        7.4105475565        2.4175118797
 Cd        -1.6116442377        6.4880648240        6.2478272306
 Cd        -4.3308002626        4.8127262164       -0.6762739309
 Cd        -1.8326132452        3.6694977750        3.1598212265
 Cd         0.4939817277        3.1637060931        6.7202662426
 Cd        -4.5980154021        1.9988297698       -4.0880170010
 Cd        -2.1651194586        1.0165564496       -0.4536921834
 Cd         0.1376109507       -0.0659106884        3.1336818174
 Cd         2.6419074521       -0.6636939286        6.8958319365
 Cd        -4.1515129292       -0.5348426091       -6.9620217917
 Cd        -2.2012490343       -1.8491984656       -3.4894107829
 Cd         0.0359311218       -2.8494155653       -0.0264680683
 Cd         2.4407298775       -3.8224684908        3.5289587884
 Cd         4.5907434619       -4.2169180472        6.5928471603
 Cd        -2.6321953796       -4.5685798778       -6.0773989300
 Cd        -0.3638438279       -6.1221236347       -3.0620735359
 Cd         1.9882729153       -6.8506852632       -0.0376753302
 Cd         4.3604701588       -7.5063202656        3.0981086138
 Cd        -2.4313710890        8.2839908015       -1.2010761441
 Cd         0.1210964618        6.7915494583        2.0748938605
 Cd         2.2602783261        6.3879934074        5.9824457591
 Cd        -2.2743307721        5.5403016700       -4.1096429978
 Cd         0.1552258413        4.6164378819       -0.9814446932
 Cd         2.6173372932        3.7540356816        2.4616712460
 Cd         4.3934694910        2.5024270436        5.6448470259
 Cd        -2.3839877703        3.0961459608       -7.5397423510
 Cd        -0.1308699873        1.7716472388       -4.3458913396
 Cd         2.1522040622        0.8595996928       -0.9600505658
 Cd         4.3027041934       -0.4425155449        2.5248589789
 Cd         6.4943132815       -0.6514444341        6.0110723312
 Cd         0.4032906214       -0.5920449882       -7.0625722312
 Cd         2.1504065746       -1.8410095193       -3.9631978812
 Cd         4.1282053355       -2.9764966895       -0.5499119195
 Cd         6.9189885741       -3.8001688729        2.8840486736
 Cd         1.0693858855       -4.7693596381       -6.7909688629
 Cd         3.6529341800       -5.7620820022       -3.6150795142
 Cd         5.7341856059       -6.5625995016       -0.3323817960
 Cd         2.4532379782        8.1225833618       -1.1556872380
 Cd         4.4025673150        7.2904811152        1.7928276254
 Cd         2.3800547108        5.2453457502       -4.8107637235
 Cd         4.8184663347        4.7191125514       -1.4277792117
 Cd         6.7589411702        3.8390778732        2.0295448973
 Cd         2.6210634084        2.7844913241       -7.7035228004
 Cd         4.8495943395        1.7843685348       -4.5225056138
 Cd         6.7261500983        1.0662237140       -0.9642295531
 Cd         8.8881450478        0.4141445330        2.4369093904
 Cd         4.3615782352       -0.9213178924       -7.7328888960
 Cd         6.7438649008       -1.9767569930       -4.2031112584
 Cd         8.5272445020       -2.6218905711       -0.2551455218
 Se        -9.0557725106        0.2424574140        0.9180313808
 Se        -6.3745872764       -0.6570220647        4.4225742627
 Se        -3.9358548519       -1.3506397678        8.2925868769
 Se        -6.5830028390       -3.7408669090        1.3890860046
 Se        -4.5802302415       -4.2716541219        4.8585926421
 Se        -4.6110671623       -7.7792240778        1.5343213278
 Se        -6.6407812351        3.9866809498        0.4586064126
 Se        -4.0705866514        2.6241591830        3.9150270775
 Se        -1.6315747320        2.0143859544        7.9219454430
 Se        -6.7106235468        0.9827493806       -3.1628202938
 Se        -4.4077684895       -0.2106461950        0.3970531668
 Se        -2.0534879979       -1.1190641497        4.2604482105
 Se         0.4069246601       -1.5676855049        8.0617057342
 Se        -4.4126107232       -3.1307459794       -2.8028288282
 Se        -2.2371864822       -4.0884616040        0.9473336128
 Se         0.1541797359       -4.8148952714        4.4843326207
 Se        -2.4147106009       -7.4199706225       -2.0529393442
 Se        -0.0662571417       -7.8800811154        1.3078284855
 Se        -4.5519687636        7.5920037884       -0.0122560791
 Se        -1.8482840651        6.3647212661        3.5390459072
 Se         0.4006735392        5.8241498358        7.5878867146
 Se        -4.4655945585        4.5529209660       -3.3484418515
 Se        -2.0798083538        3.7153034916        0.3451575142
 Se         0.4973892782        2.6967113851        3.7286137790
 Se         2.7724753484        1.9958260876        7.6298945277
 Se        -4.6126224962        2.0736182894       -6.9031574659
 Se        -2.2770211290        0.8531533747       -3.1284312065
 Se         0.0138865169       -0.1636477002        0.3858468104
 Se         2.3115473387       -1.3198431962        4.0017354986
 Se         4.8624545925       -1.8855864388        7.7371297607
 Se        -2.0700877949       -1.9675257511       -6.4603372509
 Se        -0.0447057629       -3.1582708631       -2.8090856920
 Se         2.2343306950       -4.2299664240        0.7817840723
 Se         4.8342987615       -4.9516929708        4.0974643468
 Se        -0.7556003326       -6.2829108386       -5.8406699955
 Se         1.9243057511       -7.4784768035       -2.6074198353
 Se         4.2543989663       -8.3809591814        0.7363809319
 Se         0.0386925703        7.3677075300       -0.4939635450
 Se         2.3791568525        6.5289221229        3.1400383851
 Se         0.0465974103        4.4270318221       -3.5936563407
 Se         2.5167269427        3.6273521599       -0.0581806204
 Se         4.7705604635        2.4670139639        3.1233546104
 Se         0.0435933033        1.9323944164       -6.9695738842
 Se         2.2733127965        0.7623703678       -3.6584263160
 Se         4.3816175435       -0.2841549253       -0.0177063702
 Se         6.9670500347       -1.1290204494        3.5565582379
 Se         2.2410869402       -2.2702007814       -6.6798205275
 Se         4.3723294721       -3.1971869108       -3.2130677403
 Se         6.4331938555       -4.1098532443        0.4136420186
 Se         4.8503033307        7.5509093293       -0.7463548497
 Se         4.8776288797        4.5477652435       -4.0091414448
 Se         7.0830986217        3.5950723552       -0.6434567968
 Se         4.7810064642        1.5273410534       -7.5566303287
 Se         6.9188050062        0.6130038217       -3.7081238627
 Se         9.1066871843       -0.0609359671       -0.0919647969
  C         6.9955771113       -6.9586634775       -2.8583426301
  H         7.7780160969       -7.1271873265       -3.6573399650
  O         5.8389952916       -6.4652991204       -3.1445809228
  O         7.2920676004       -7.2683568805       -1.6893132711
  C         3.3939431960       -6.2668607509       -6.9513074648
  H         4.3245440932       -6.8689211647       -7.0591687882
  O         3.0202466073       -5.7860511295       -5.7843136273
  O         2.6220129789       -6.1746538788       -7.9242101403
  C         6.3116555909       -2.9071154185       -7.4921130606
  H         7.0978863851       -3.7212906458       -7.4285512081
  O         6.0096715894       -2.3219711192       -6.3505932827
  O         5.9403243477       -2.4750431756       -8.6116316973
  C         8.9837561036       -3.3697375837       -3.4349055328
  H         9.9249943929       -3.8864043165       -3.1840078659
  O         8.5659407989       -3.4209184445       -4.6048832464
  O         8.2714489672       -2.6971151254       -2.5207012617
  C         9.7902109758       -4.6282247391        2.1768529346
  H        10.6284324694       -5.3337138149        2.3552924638
  O         9.7484501532       -4.1824896055        0.9942458601
  O         9.0219926648       -4.5705851174        3.1873629795
  C        -2.8252708508       -8.8894178348        5.3653894160
  H        -2.3915771747       -9.8892286280        5.4446685031
  O        -1.9808601030       -7.9304545651        5.0436955975
  O        -4.0908415257       -8.7280019527        5.4030844137
  C         3.0047406823       -8.6887063298        5.2919739424
  H         2.6853413808       -9.0312323512        6.2714246943
  O         1.9985977812       -8.3553887881        4.5599054594
  O         4.2197147413       -8.6069092298        4.9235206312
  C         2.8732291572       -5.7090624943        8.2322507888
  H         2.4095730423       -6.3582442170        8.9295273658
  O         2.2236878889       -4.8031284854        7.6183804854
  O         4.1525405945       -5.8988692439        8.1468427445
  C        -2.5324052264       -5.9090323801        8.5168983878
  H        -2.0058427467       -6.7599986745        9.0204193621
  O        -1.9189018681       -5.2527647032        7.5983339134
  O        -3.6521974131       -5.4981014961        8.8936623702
  C        -6.8661340661        2.3082426882        7.3884767521
  H        -7.2433530482        3.2983326111        7.3747512577
  O        -5.6189307919        2.1553364867        7.5292857639
  O        -7.6694328727        1.3672322100        7.2032576312
  C        -4.1128935570        6.2776012356        7.2258109093
  H        -5.2184092536        6.2949225170        7.4003980339
  O        -3.5215502414        5.2331222329        6.7794929280
  O        -3.5956064510        7.4679880815        7.3184340370
  C        -6.2584500423        7.1467273309        4.0778865765
  H        -7.2018864753        7.1620259062        4.6862261037
  O        -5.8042352338        6.0508881806        3.6277903665
  O        -5.6141473350        8.2227071687        3.8530055117
  C        -9.2670155991        2.9624473135        4.4549609073
  H        -9.7760873251        3.8307467380        4.7753730710
  O        -8.0580447847        3.0137717908        4.1153681461
  O       -10.0869615960        1.9755230626        4.3964141791
  C        -9.5997958208       -3.5202239981        4.2555074891
  H       -10.6284324694       -3.6062117458        4.7363993397
  O        -9.3836198173       -2.7271085544        3.2939504316
  O        -8.6749593009       -4.3055307223        4.7674147240
  C        -5.4063829718       -6.0836320759       -6.1576393485
  H        -6.0390997038       -6.5934387315       -6.8768176703
  O        -5.3157147411       -6.5042627408       -4.9638375967
  O        -4.7997118332       -5.0931497246       -6.6842330004
  C        -7.4812021438       -7.2683192216       -1.8337008205
  H        -7.8430239833       -7.7214409635       -2.7403108931
  O        -6.3847231004       -6.5596142310       -1.8855223803
  O        -8.0870004405       -7.4369608581       -0.7449951352
  C        -9.2637717352       -3.4248031045       -2.1287629167
  H        -9.5435102925       -4.0726156799       -2.9624854104
  O        -8.1685743898       -2.7562864935       -2.2769679175
  O        -9.8293124780       -3.4993302663       -1.0042472880
  C        -6.7198117275       -1.5155721631       -7.0057360974
  H        -7.7266400310       -1.9701098143       -7.1795729881
  O        -6.3208037730       -1.2812141421       -5.7891801227
  O        -6.0546670581       -1.2647410752       -8.0219575549
  C        -1.9610306020        5.6962737072       -7.4797868569
  H        -1.8068881661        6.7616764611       -7.4798700689
  O        -2.4613788677        5.1953402046       -6.4147373301
  O        -1.7592038190        5.0404242691       -8.5376948407
  C        -1.7153677193        9.0065729983       -3.7807068554
  H        -1.3518565997        9.2891789052       -4.8285272378
  O        -1.7735635219        7.7204009534       -3.5311974415
  O        -1.9589811591        9.8892286280       -2.9296575010
  C         2.5176986766        8.6527359013       -4.1276241396
  H         2.7356319561        9.0838176512       -5.0545617483
  O         2.0941304229        7.4607563111       -4.0382054964
  O         2.6632020791        9.4136986823       -3.1567247192
  C         1.7405814703        5.3615037054       -8.2026998584
  H         1.4592813282        6.4433815072       -8.3446733349
  O         2.2712544771        5.0744229803       -7.0359036782
  O         1.5374971892        4.4786315137       -9.0204193621
  C         9.4791869119        2.6134878200        3.9079418032
  H         9.6264681644        3.4611325178        4.5867541287
  O         8.5294682966        2.7206869475        3.0468687327
  O        10.1884170796        1.5361363159        4.0354546634
  C         6.6320899766        7.0427804887        3.3240585285
  H         7.5183451153        7.1103565644        4.0025867163
  O         6.4921259472        6.1579139584        2.4473334656
  O         5.8014508194        7.8970951585        3.5804466065
  C         4.7468288793        5.8510846562        6.9391041765
  H         5.6837062732        5.7110173508        7.4566454645
  O         4.3315486404        4.9881730889        6.0840680113
  O         4.1390624477        6.9214380767        7.1338855679
  C         7.5642974957        1.7429307679        7.1823006621
  H         8.1116275708        2.6102062210        7.6466333920
  O         6.7423080014        2.0330978891        6.2208765696
  O         7.8434776238        0.5800715711        7.5931108165
     227
 i =        1, time =        1.000, E =       -10.2757797359
 Cd        -8.6193443411        0.4796414354        3.4771612307
 Cd        -5.8715150171       -0.2572071473        7.1144044499
 Cd        -8.4082134556       -2.1541217491        0.3852436964
 Cd        -6.8927360438       -3.2918176262        3.9610960007
 Cd        -3.6901784503       -3.7003731442        7.3823819465
 Cd        -6.4419662468       -6.2357539102        0.4642797493
 Cd        -4.3123558048       -6.8296181299        3.9052011472
 Cd        -6.1163702650        3.8609277336        2.9055427314
 Cd        -3.6066039721        2.8812205749        6.5904085127
 Cd        -6.7534235131        1.1872298132       -0.3192198314
 Cd        -4.0444036737        0.0755173637        3.0501827705
 Cd        -1.7741892526       -0.3125619415        6.8335721215
 Cd        -6.3660837513       -1.4624105477       -3.4401692163
 Cd        -4.3613369542       -3.1217917763       -0.1745589376
 Cd        -2.2426109802       -3.6215565759        3.6336067357
 Cd         0.1787124505       -3.9615827232        7.0369312183
 Cd        -4.2693535080       -5.9882355289       -2.9988615069
 Cd        -2.2486904031       -6.7966251656        0.6791785759
 Cd         0.0677926091       -7.3029762269        3.8542232627
 Cd        -4.0802938937        7.4119380111        2.4182460675
 Cd        -1.6107628635        6.4879201181        6.2509678399
 Cd        -4.3325225209        4.8128016763       -0.6769486069
 Cd        -1.8303910911        3.6695863009        3.1589486414
 Cd         0.4898038155        3.1633437896        6.7205281874
 Cd        -4.5996362989        2.0001009262       -4.0889977994
 Cd        -2.1628824107        1.0181159014       -0.4517519139
 Cd         0.1384292149       -0.0681746468        3.1344097919
 Cd         2.6424457558       -0.6635641283        6.8958987319
 Cd        -4.1540657084       -0.5351532923       -6.9611290011
 Cd        -2.2031731747       -1.8491059928       -3.4900198094
 Cd         0.0358086174       -2.8474763441       -0.0250966358
 Cd         2.4397091983       -3.8215396447        3.5304689570
 Cd         4.5938415681       -4.2151901710        6.5946710968
 Cd        -2.6316790808       -4.5699808331       -6.0785431058
 Cd        -0.3609714914       -6.1210603806       -3.0631260438
 Cd         1.9864023783       -6.8523403443       -0.0374632521
 Cd         4.3578704691       -7.5050611577        3.0974033867
 Cd        -2.4320653700        8.2867215918       -1.2003410742
 Cd         0.1211451875        6.7911351674        2.0748027678
 Cd         2.2580847591        6.3879354353        5.9826550817
 Cd        -2.2740446643        5.5405359897       -4.1121149306
 Cd         0.1544605410        4.6148604012       -0.9823422886
 Cd         2.6165240902        3.7533467306        2.4610160029
 Cd         4.3939132299        2.5015223936        5.6446842493
 Cd        -2.3864848379        3.0937107361       -7.5398912600
 Cd        -0.1312643490        1.7709140616       -4.3474193399
 Cd         2.1531661934        0.8600161422       -0.9632002501
 Cd         4.3034573879       -0.4402629498        2.5248015498
 Cd         6.4920217927       -0.6517907283        6.0104760048
 Cd         0.4042720038       -0.5927769428       -7.0621271646
 Cd         2.1513100077       -1.8410880184       -3.9633296211
 Cd         4.1299666033       -2.9780230008       -0.5482298451
 Cd         6.9198179436       -3.7969820623        2.8855207482
 Cd         1.0695419483       -4.7692050107       -6.7906684327
 Cd         3.6506200370       -5.7625135513       -3.6177173649
 Cd         5.7329666979       -6.5640285172       -0.3327737747
 Cd         2.4551301308        8.1222919292       -1.1566014787
 Cd         4.4053343280        7.2897901698        1.7948259488
 Cd         2.3804050187        5.2452048668       -4.8087278159
 Cd         4.8189830328        4.7184491956       -1.4284127954
 Cd         6.7582258763        3.8401459872        2.0311415895
 Cd         2.6218118917        2.7828923955       -7.7033759109
 Cd         4.8493536603        1.7846598266       -4.5231234063
 Cd         6.7277157592        1.0650253593       -0.9631050575
 Cd         8.8867401677        0.4155735777        2.4347886229
 Cd         4.3617979974       -0.9225943334       -7.7309222189
 Cd         6.7427739375       -1.9756116552       -4.2012716526
 Cd         8.5291264519       -2.6208009831       -0.2527906917
 Se        -9.0547676335        0.2428627582        0.9183269454
 Se        -6.3727600801       -0.6564899135        4.4183045174
 Se        -3.9345441686       -1.3489472557        8.2965035108
 Se        -6.5831281866       -3.7425259673        1.3880918746
 Se        -4.5790808505       -4.2748256931        4.8597204985
 Se        -4.6122294466       -7.7765676032        1.5328453157
 Se        -6.6422529524        3.9855668555        0.4577286842
 Se        -4.0719627448        2.6208511985        3.9142838917
 Se        -1.6333354065        2.0117269905        7.9251035805
 Se        -6.7116429793        0.9828755920       -3.1654817037
 Se        -4.4070636520       -0.2111847149        0.3948952923
 Se        -2.0531447167       -1.1153573023        4.2593787433
 Se         0.4060051805       -1.5661551684        8.0650662770
 Se        -4.4160710185       -3.1299741020       -2.8046571008
 Se        -2.2374562764       -4.0915881209        0.9472036069
 Se         0.1530662720       -4.8127621185        4.4857969283
 Se        -2.4165689018       -7.4205949447       -2.0539565131
 Se        -0.0669749694       -7.8791146887        1.3095371771
 Se        -4.5521054812        7.5948386015       -0.0125761706
 Se        -1.8467351931        6.3632946545        3.5400521651
 Se         0.4036995458        5.8261714487        7.5858420564
 Se        -4.4660108730        4.5539571798       -3.3489540858
 Se        -2.0809879071        3.7152553704        0.3431780520
 Se         0.4982196639        2.6970153961        3.7286655665
 Se         2.7717962594        1.9958697348        7.6261994887
 Se        -4.6131579575        2.0747726485       -6.9049083426
 Se        -2.2788839408        0.8535255841       -3.1260961846
 Se         0.0145459246       -0.1632186798        0.3853929567
 Se         2.3129680371       -1.3189472812        3.9989917705
 Se         4.8631480648       -1.8843048322        7.7353943661
 Se        -2.0702245102       -1.9664131498       -6.4603775099
 Se        -0.0447372387       -3.1599184257       -2.8087919373
 Se         2.2323330962       -4.2314547980        0.7809349771
 Se         4.8362378536       -4.9530803653        4.0967204116
 Se        -0.7551444247       -6.2847922450       -5.8413955832
 Se         1.9250121047       -7.4790314495       -2.6076192536
 Se         4.2593715038       -8.3791585754        0.7364189483
 Se         0.0356505511        7.3686151382       -0.4913291395
 Se         2.3809048792        6.5252211851        3.1424442158
 Se         0.0437116092        4.4288310935       -3.5939904865
 Se         2.5163877918        3.6274420837       -0.0568031528
 Se         4.7726873159        2.4661993195        3.1253385579
 Se         0.0455250781        1.9299490799       -6.9704886040
 Se         2.2758179441        0.7648261627       -3.6570664613
 Se         4.3766432635       -0.2853681795       -0.0177821521
 Se         6.9677143645       -1.1294302067        3.5582579769
 Se         2.2369799778       -2.2681589607       -6.6837623339
 Se         4.3737274092       -3.1974938150       -3.2156576027
 Se         6.4331615394       -4.1116811465        0.4129963593
 Se         4.8515083384        7.5524209272       -0.7459078701
 Se         4.8774790230        4.5489822542       -4.0122099587
 Se         7.0855763690        3.5934403938       -0.6429020757
 Se         4.7816591009        1.5264039145       -7.5555487838
 Se         6.9185300648        0.6112294618       -3.7073734857
 Se         9.1068558974       -0.0627011534       -0.0923155086
  C         6.9966783904       -6.9498402366       -2.8612695423
  H         7.7649322095       -7.1224747738       -3.6684216540
  O         5.8439425062       -6.4671985042       -3.1401087739
  O         7.2884226409       -7.2740873828       -1.6935115565
  C         3.3950657039       -6.2673063144       -6.9491811154
  H         4.3444066225       -6.8936096686       -7.0753272229
  O         3.0188291745       -5.7908730123       -5.7819134498
  O         2.6176842509       -6.1688905730       -7.9239685018
  C         6.3106279493       -2.9078505862       -7.4910558063
  H         7.1299137504       -3.7048862282       -7.4466889051
  O         6.0085518020       -2.3181788025       -6.3473618292
  O         5.9393367857       -2.4742164000       -8.6124573552
  C         8.9774484618       -3.3708806807       -3.4296488835
  H         9.9250180562       -3.8774829974       -3.1826003730
  O         8.5682378671       -3.4148429468       -4.6046146275
  O         8.2717139608       -2.6966656627       -2.5199823698
  C         9.7980747525       -4.6252009442        2.1809981334
  H        10.6408655401       -5.3318691344        2.3887999993
  O         9.7470384773       -4.1804690374        0.9925549377
  O         9.0285036413       -4.5680948581        3.1870298106
  C        -2.8217311730       -8.8884383581        5.3598597307
  H        -2.4154187803       -9.9024293192        5.4343946394
  O        -1.9847131942       -7.9306455411        5.0423214172
  O        -4.0904683402       -8.7274204066        5.4043993563
  C         2.9969219010       -8.6916227678        5.2874265949
  H         2.6967725338       -9.0398269484        6.2934215078
  O         1.9992716028       -8.3578428425        4.5594026033
  O         4.2233872301       -8.6004762663        4.9153130370
  C         2.8793044564       -5.7053269616        8.2324280478
  H         2.3955873073       -6.3773024893        8.9303283437
  O         2.2189074067       -4.8087998452        7.6163302817
  O         4.1498507394       -5.9034372728        8.1535644509
  C        -2.5347133034       -5.9173478313        8.5220071166
  H        -2.0052498086       -6.7390725628        9.0096019785
  O        -1.9214266949       -5.2583101801        7.5983244165
  O        -3.6522445259       -5.5083733363        8.8927354074
  C        -6.8630680677        2.3027059202        7.3892072933
  H        -7.2086193538        3.3071349018        7.3885257928
  O        -5.6212591458        2.1591078858        7.5336805399
  O        -7.6695301032        1.3702400466        7.1999454174
  C        -4.1169963447        6.2828045522        7.2281920640
  H        -5.2418933127        6.2896177269        7.3832000201
  O        -3.5266370190        5.2290244459        6.7738189709
  O        -3.5910682339        7.4673261763        7.3180496547
  C        -6.2567433410        7.1462440376        4.0780924402
  H        -7.2111390447        7.1649409639        4.6689854642
  O        -5.8090488631        6.0478083718        3.6278474178
  O        -5.6127036428        8.2206947090        3.8486622947
  C        -9.2742216723        2.9617576844        4.4604767994
  H        -9.7855372140        3.8838940690        4.7760086716
  O        -8.0588063391        3.0119119239        4.1192647276
  O       -10.0810558313        1.9792173589        4.3921647347
  C        -9.6032807498       -3.5282208013        4.2551676244
  H       -10.5971720209       -3.6001750875        4.7566807035
  O        -9.3832702464       -2.7227947575        3.2942616484
  O        -8.6785001823       -4.3016256980        4.7629352344
  C        -5.4081382378       -6.0792351139       -6.1561958117
  H        -6.0546960796       -6.5859836395       -6.8890942905
  O        -5.3110092159       -6.5040804553       -4.9651357212
  O        -4.7983508902       -5.0927331803       -6.6852975632
  C        -7.4874945404       -7.2705752238       -1.8347938109
  H        -7.8388434959       -7.7173330376       -2.7530342297
  O        -6.3887301751       -6.5549837760       -1.8842704763
  O        -8.0716667843       -7.4408946027       -0.7458106725
  C        -9.2562801575       -3.4269973737       -2.1219764859
  H        -9.5270787848       -4.0663584857       -2.9594189931
  O        -8.1698160648       -2.7554003261       -2.2727205510
  O        -9.8242084699       -3.4939497382       -1.0091903452
  C        -6.7207107993       -1.5101431109       -7.0046021341
  H        -7.7450574417       -1.9674181007       -7.1698505571
  O        -6.3198336649       -1.2781014955       -5.7989668174
  O        -6.0632549652       -1.2634427978       -8.0154898870
  C        -1.9629104602        5.6954907983       -7.4853199116
  H        -1.7770888886        6.7764005651       -7.4923242406
  O        -2.4611829965        5.1866912754       -6.4086774417
  O        -1.7564263990        5.0403557423       -8.5283273394
  C        -1.7168961302        9.0075125365       -3.7839136624
  H        -1.3493405476        9.2660238074       -4.8465614694
  O        -1.7700625376        7.7194212146       -3.5246153823
  O        -1.9637598754        9.8895670835       -2.9408211590
  C         2.5062428692        8.6538906584       -4.1272905467
  H         2.7131102182        9.0638249498       -5.0476060874
  O         2.0944632106        7.4531984941       -4.0307391994
  O         2.6627568478        9.4111503459       -3.1552106587
  C         1.7411624296        5.3672432672       -8.1968700554
  H         1.4358383610        6.4416008070       -8.3632925476
  O         2.2781672895        5.0765851445       -7.0406283525
  O         1.5312521158        4.4833281632       -9.0175598486
  C         9.4768901141        2.6096284637        3.8999975635
  H         9.6131090334        3.4671477718        4.5843902861
  O         8.5279634926        2.7173584766        3.0491541843
  O        10.1885237825        1.5401288654        4.0330675439
  C         6.6326630260        7.0383106770        3.3282006127
  H         7.5082674956        7.1289998248        4.0070788575
  O         6.4944777513        6.1603944443        2.4465478205
  O         5.7954551097        7.9029993846        3.5812567625
  C         4.7447656119        5.8524855639        6.9354042197
  H         5.7085862008        5.7040540943        7.4370666698
  O         4.3285783594        4.9885425091        6.0815269599
  O         4.1456022748        6.9223925907        7.1371328284
  C         7.5603391290        1.7452806734        7.1878897466
  H         8.1158840311        2.6116602203        7.6593692779
  O         6.7458490712        2.0302496299        6.2244477528
  O         7.8434954574        0.5821350865        7.5895139324
     227
 i =        2, time =        2.000, E =       -10.2904740292
 Cd        -8.6170045526        0.4783141115        3.4767325850
 Cd        -5.8706816704       -0.2577037253        7.1136814795
 Cd        -8.4088573846       -2.1551236198        0.3837097732
 Cd        -6.8897197414       -3.2939693342        3.9621476101