     227
 i =        0, time =        0.000, E =        -8.8155808317
 Cd        -8.6216924880        0.4810107428        3.4775887729
 Cd        -5.8723589632       -0.2566559957        7.1151373767
 Cd        -8.4076147924       -2.1531404527        0.3867588804
 Cd        -6.8957642261       -3.2896665849        3.9600318291
 Cd        -3.6930098048       -3.6992689615        7.3819491709
 Cd        -6.4429261463       -6.2347087238        0.4622469067
 Cd        -4.3123952394       -6.8285875372        3.9039095072
 Cd        -6.1141073353        3.8626235599        2.9066844924
 Cd        -3.6048790416        2.8797284733        6.5917986711
 Cd        -6.7531255596        1.1841266196       -0.3182182747
 Cd        -4.0437606329        0.0729837467        3.0511954168
 Cd        -1.7753257667       -0.3121054857        6.8316599018
 Cd        -6.3661028473       -1.4630135273       -3.4383357626
 Cd        -4.3602814436       -3.1214810613       -0.1759283953
 Cd        -2.2424276819       -3.6242998489        3.6335413818
 Cd         0.1757294635       -3.9625201566        7.0364714760
 Cd        -4.2692200317       -5.9860442556       -3.0005266361
 Cd        -2.2482225396       -6.7972628816        0.6786391664
 Cd         0.0669003827       -7.3030327295        3.8545421700
 Cd        -4.0792754193        7.4105475565        2.4175118797
 Cd        -1.6116442377        6.4880648240        6.2478272306
 Cd        -4.3308002626        4.8127262164       -0.6762739309
 Cd        -1.8326132452        3.6694977750        3.1598212265
 Cd         0.4939817277        3.1637060931        6.7202662426
 Cd        -4.5980154021        1.9988297698       -4.0880170010
 Cd        -2.1651194586        1.0165564496       -0.4536921834
 Cd         0.1376109507       -0.0659106884        3.1336818174
 Cd         2.6419074521       -0.6636939286        6.8958319365
 Cd        -4.1515129292       -0.5348426091       -6.9620217917
 Cd        -2.2012490343       -1.8491984656       -3.4894107829
 Cd         0.0359311218       -2.8494155653       -0.0264680683
 Cd         2.4407298775       -3.8224684908        3.5289587884
 Cd         4.5907434619       -4.2169180472        6.5928471603
 Cd        -2.6321953796       -4.5685798778       -6.0773989300
 Cd        -0.3638438279       -6.1221236347       -3.0620735359
 Cd         1.9882729153       -6.8506852632       -0.0376753302
 Cd         4.3604701588       -7.5063202656        3.0981086138
 Cd        -2.4313710890        8.2839908015       -1.2010761441
 Cd         0.1210964618        6.7915494583        2.0748938605
 Cd         2.2602783261        6.3879934074        5.9824457591
 Cd        -2.2743307721        5.5403016700       -4.1096429978
 Cd         0.1552258413        4.6164378819       -0.9814446932
 Cd         2.6173372932        3.7540356816        2.4616712460
 Cd         4.3934694910        2.5024270436        5.6448470259
 Cd        -2.3839877703        3.0961459608       -7.5397423510
 Cd        -0.1308699873        1.7716472388       -4.3458913396
 Cd         2.1522040622        0.8595996928       -0.9600505658
 Cd         4.3027041934       -0.4425155449        2.5248589789
 Cd         6.4943132815       -0.6514444341        6.0110723312
 Cd         0.4032906214       -0.5920449882       -7.0625722312
 Cd         2.1504065746       -1.8410095193       -3.9631978812
 Cd         4.1282053355       -2.9764966895       -0.5499119195
 Cd         6.9189885741       -3.8001688729        2.8840486736
 Cd         1.0693858855       -4.7693596381       -6.7909688629
 Cd         3.6529341800       -5.7620820022       -3.6150795142
 Cd         5.7341856059       -6.5625995016       -0.3323817960
 Cd         2.4532379782        8.1225833618       -1.1556872380
 Cd         4.4025673150        7.2904811152        1.7928276254
 Cd         2.3800547108        5.2453457502       -4.8107637235
 Cd         4.8184663347        4.7191125514       -1.4277792117
 Cd         6.7589411702        3.8390778732        2.0295448973
 Cd         2.6210634084        2.7844913241       -7.7035228004
 Cd         4.8495943395        1.7843685348       -4.5225056138
 Cd         6.7261500983        1.0662237140       -0.9642295531
 Cd         8.8881450478        0.4141445330        2.4369093904
 Cd         4.3615782352       -0.9213178924       -7.7328888960
 Cd         6.7438649008       -1.9767569930       -4.2031112584
 Cd         8.5272445020       -2.6218905711       -0.2551455218
 Se        -9.0557725106        0.2424574140        0.9180313808
 Se        -6.3745872764       -0.6570220647        4.4225742627
 Se        -3.9358548519       -1.3506397678        8.2925868769
 Se        -6.5830028390       -3.7408669090        1.3890860046
 Se        -4.5802302415       -4.2716541219        4.8585926421
 Se        -4.6110671623       -7.7792240778        1.5343213278
 Se        -6.6407812351        3.9866809498        0.4586064126
 Se        -4.0705866514        2.6241591830        3.9150270775
 Se        -1.6315747320        2.0143859544        7.9219454430
 Se        -6.7106235468        0.9827493806       -3.1628202938
 Se        -4.4077684895       -0.2106461950        0.3970531668
 Se        -2.0534879979       -1.1190641497        4.2604482105
 Se         0.4069246601       -1.5676855049        8.0617057342
 Se        -4.4126107232       -3.1307459794       -2.8028288282
 Se        -2.2371864822       -4.0884616040        0.9473336128
 Se         0.1541797359       -4.8148952714        4.4843326207
 Se        -2.4147106009       -7.4199706225       -2.0529393442
 Se        -0.0662571417       -7.8800811154        1.3078284855
 Se        -4.5519687636        7.5920037884       -0.0122560791
 Se        -1.8482840651        6.3647212661        3.5390459072
 Se         0.4006735392        5.8241498358        7.5878867146
 Se        -4.4655945585        4.5529209660       -3.3484418515
 Se        -2.0798083538        3.7153034916        0.3451575142
 Se         0.4973892782        2.6967113851        3.7286137790
 Se         2.7724753484        1.9958260876        7.6298945277
 Se        -4.6126224962        2.0736182894       -6.9031574659
 Se        -2.2770211290        0.8531533747       -3.1284312065
 Se         0.0138865169       -0.1636477002        0.3858468104
 Se         2.3115473387       -1.3198431962        4.0017354986
 Se         4.8624545925       -1.8855864388        7.7371297607
 Se        -2.0700877949       -1.9675257511       -6.4603372509
 Se        -0.0447057629       -3.1582708631       -2.8090856920
 Se         2.2343306950       -4.2299664240        0.7817840723
 Se         4.8342987615       -4.9516929708        4.0974643468
 Se        -0.7556003326       -6.2829108386       -5.8406699955
 Se         1.9243057511       -7.4784768035       -2.6074198353
 Se         4.2543989663       -8.3809591814        0.7363809319
 Se         0.0386925703        7.3677075300       -0.4939635450
 Se         2.3791568525        6.5289221229        3.1400383851
 Se         0.0465974103        4.4270318221       -3.5936563407
 Se         2.5167269427        3.6273521599       -0.0581806204
 Se         4.7705604635        2.4670139639        3.1233546104
 Se         0.0435933033        1.9323944164       -6.9695738842
 Se         2.2733127965        0.7623703678       -3.6584263160
 Se         4.3816175435       -0.2841549253       -0.0177063702
 Se         6.9670500347       -1.1290204494        3.5565582379
 Se         2.2410869402       -2.2702007814       -6.6798205275
 Se         4.3723294721       -3.1971869108       -3.2130677403
 Se         6.4331938555       -4.1098532443        0.4136420186
 Se         4.8503033307        7.5509093293       -0.7463548497
 Se         4.8776288797        4.5477652435       -4.0091414448
 Se         7.0830986217        3.5950723552       -0.6434567968
 Se         4.7810064642        1.5273410534       -7.5566303287
 Se         6.9188050062        0.6130038217       -3.7081238627
 Se         9.1066871843       -0.0609359671       -0.0919647969
  C         6.9955771113       -6.9586634775       -2.8583426301
  H         7.7780160969       -7.1271873265       -3.6573399650
  O         5.8389952916       -6.4652991204       -3.1445809228
  O         7.2920676004       -7.2683568805       -1.6893132711
  C         3.3939431960       -6.2668607509       -6.9513074648
  H         4.3245440932       -6.8689211647       -7.0591687882
  O         3.0202466073       -5.7860511295       -5.7843136273
  O         2.6220129789       -6.1746538788       -7.9242101403
  C         6.3116555909       -2.9071154185       -7.4921130606
  H         7.0978863851       -3.7212906458       -7.4285512081
  O         6.0096715894       -2.3219711192       -6.3505932827
  O         5.9403243477       -2.4750431756       -8.6116316973
  C         8.9837561036       -3.3697375837       -3.4349055328
  H         9.9249943929       -3.8864043165       -3.1840078659
  O         8.5659407989       -3.4209184445       -4.6048832464
  O         8.2714489672       -2.6971151254       -2.5207012617
  C         9.7902109758       -4.6282247391        2.1768529346
  H        10.6284324694       -5.3337138149        2.3552924638
  O         9.7484501532       -4.1824896055        0.9942458601
  O         9.0219926648       -4.5705851174        3.1873629795
  C        -2.8252708508       -8.8894178348        5.3653894160
  H        -2.3915771747       -9.8892286280        5.4446685031
  O        -1.9808601030       -7.9304545651        5.0436955975
  O        -4.0908415257       -8.7280019527        5.4030844137
  C         3.0047406823       -8.6887063298        5.2919739424
  H         2.6853413808       -9.0312323512        6.2714246943
  O         1.9985977812       -8.3553887881        4.5599054594
  O         4.2197147413       -8.6069092298        4.9235206312
  C         2.8732291572       -5.7090624943        8.2322507888
  H         2.4095730423       -6.3582442170        8.9295273658
  O         2.2236878889       -4.8031284854        7.6183804854
  O         4.1525405945       -5.8988692439        8.1468427445
  C        -2.5324052264       -5.9090323801        8.5168983878
  H        -2.0058427467       -6.7599986745        9.0204193621
  O        -1.9189018681       -5.2527647032        7.5983339134
  O        -3.6521974131       -5.4981014961        8.8936623702
  C        -6.8661340661        2.3082426882        7.3884767521
  H        -7.2433530482        3.2983326111        7.3747512577
  O        -5.6189307919        2.1553364867        7.5292857639
  O        -7.6694328727        1.3672322100        7.2032576312
  C        -4.1128935570        6.2776012356        7.2258109093
  H        -5.2184092536        6.2949225170        7.4003980339
  O        -3.5215502414        5.2331222329        6.7794929280
  O        -3.5956064510        7.4679880815        7.3184340370
  C        -6.2584500423        7.1467273309        4.0778865765
  H        -7.2018864753        7.1620259062        4.6862261037
  O        -5.8042352338        6.0508881806        3.6277903665
  O        -5.6141473350        8.2227071687        3.8530055117
  C        -9.2670155991        2.9624473135        4.4549609073
  H        -9.7760873251        3.8307467380        4.7753730710
  O        -8.0580447847        3.0137717908        4.1153681461
  O       -10.0869615960        1.9755230626        4.3964141791
  C        -9.5997958208       -3.5202239981        4.2555074891
  H       -10.6284324694       -3.6062117458        4.7363993397
  O        -9.3836198173       -2.7271085544        3.2939504316
  O        -8.6749593009       -4.3055307223        4.7674147240
  C        -5.4063829718       -6.0836320759       -6.1576393485
  H        -6.0390997038       -6.5934387315       -6.8768176703
  O        -5.3157147411       -6.5042627408       -4.9638375967
  O        -4.7997118332       -5.0931497246       -6.6842330004
  C        -7.4812021438       -7.2683192216       -1.8337008205
  H        -7.8430239833       -7.7214409635       -2.7403108931
  O        -6.3847231004       -6.5596142310       -1.8855223803
  O        -8.0870004405       -7.4369608581       -0.7449951352
  C        -9.2637717352       -3.4248031045       -2.1287629167
  H        -9.5435102925       -4.0726156799       -2.9624854104
  O        -8.1685743898       -2.7562864935       -2.2769679175
  O        -9.8293124780       -3.4993302663       -1.0042472880
  C        -6.7198117275       -1.5155721631       -7.0057360974
  H        -7.7266400310       -1.9701098143       -7.1795729881
  O        -6.3208037730       -1.2812141421       -5.7891801227
  O        -6.0546670581       -1.2647410752       -8.0219575549
  C        -1.9610306020        5.6962737072       -7.4797868569
  H        -1.8068881661        6.7616764611       -7.4798700689
  O        -2.4613788677        5.1953402046       -6.4147373301
  O        -1.7592038190        5.0404242691       -8.5376948407
  C        -1.7153677193        9.0065729983       -3.7807068554
  H        -1.3518565997        9.2891789052       -4.8285272378
  O        -1.7735635219        7.7204009534       -3.5311974415
  O        -1.9589811591        9.8892286280       -2.9296575010
  C         2.5176986766        8.6527359013       -4.1276241396
  H         2.7356319561        9.0838176512       -5.0545617483
  O         2.0941304229        7.4607563111       -4.0382054964
  O         2.6632020791        9.4136986823       -3.1567247192
  C         1.7405814703        5.3615037054       -8.2026998584
  H         1.4592813282        6.4433815072       -8.3446733349
  O         2.2712544771        5.0744229803       -7.0359036782
  O         1.5374971892        4.4786315137       -9.0204193621
  C         9.4791869119        2.6134878200        3.9079418032
  H         9.6264681644        3.4611325178        4.5867541287
  O         8.5294682966        2.7206869475        3.0468687327
  O        10.1884170796        1.5361363159        4.0354546634
  C         6.6320899766        7.0427804887        3.3240585285
  H         7.5183451153        7.1103565644        4.0025867163
  O         6.4921259472        6.1579139584        2.4473334656
  O         5.8014508194        7.8970951585        3.5804466065
  C         4.7468288793        5.8510846562        6.9391041765
  H         5.6837062732        5.7110173508        7.4566454645
  O         4.3315486404        4.9881730889        6.0840680113
  O         4.1390624477        6.9214380767        7.1338855679
  C         7.5642974957        1.7429307679        7.1823006621
  H         8.1116275708        2.6102062210        7.6466333920
  O         6.7423080014        2.0330978891        6.2208765696
  O         7.8434776238        0.5800715711        7.5931108165
     227
 i =        1, time =        1.000, E =        -8.8245976866
 Cd        -8.6193425974        0.4796372730        3.4771653156
 Cd        -5.8715233662       -0.2572070274        7.1143997556
 Cd        -8.4082113117       -2.1541262392        0.3852407669
 Cd        -6.8927322019       -3.2918132101        3.9610970460
 Cd        -3.6901787458       -3.7003768113        7.3823744863
 Cd        -6.4419671299       -6.2357501357        0.4642824827
 Cd        -4.3123546073       -6.8296125345        3.9052068940
 Cd        -6.1163709045        3.8609262126        2.9055503376
 Cd        -3.6066074789        2.8812216934        6.5904001684
 Cd        -6.7534205885        1.1872293124       -0.3192191910
 Cd        -4.0444035380        0.0755170470        3.0501793912
 Cd        -1.7741903305       -0.3125675215        6.8335641462
 Cd        -6.3660825437       -1.4624234488       -3.4401678233
 Cd        -4.3613411758       -3.1217885947       -0.1745579614
 Cd        -2.2426091582       -3.6215629128        3.6336042707
 Cd         0.1787054287       -3.9615847009        7.0369287500
 Cd        -4.2693554193       -5.9882242126       -2.9988609084
 Cd        -2.2486987161       -6.7966173919        0.6791774989
 Cd         0.0677892772       -7.3029795858        3.8542251995
 Cd        -4.0802832640        7.4119367008        2.4182544384
 Cd        -1.6107664185        6.4879265974        6.2509588761
 Cd        -4.3325177964        4.8128029618       -0.6769456399
 Cd        -1.8303889153        3.6695883785        3.1589453691
 Cd         0.4898037800        3.1633471367        6.7205189631
 Cd        -4.5996233641        2.0000992335       -4.0890028586
 Cd        -2.1628821935        1.0181191961       -0.4517498371
 Cd         0.1384275294       -0.0681707014        3.1344061855
 Cd         2.6424461741       -0.6635627394        6.8958886484
 Cd        -4.1540620616       -0.5351517568       -6.9611278949
 Cd        -2.2031726927       -1.8491022129       -3.4900228671
 Cd         0.0358079412       -2.8474732079       -0.0250966252
 Cd         2.4397111007       -3.8215458902        3.5304660609
 Cd         4.5938425556       -4.2151899250        6.5946685716
 Cd        -2.6316817291       -4.5699747386       -6.0785398136
 Cd        -0.3609697424       -6.1210493182       -3.0631255186
 Cd         1.9864060143       -6.8523342881       -0.0374606884
 Cd         4.3578730548       -7.5050466387        3.0973980845
 Cd        -2.4320587314        8.2867246703       -1.2003409590
 Cd         0.1211451445        6.7911365713        2.0747925865
 Cd         2.2580832669        6.3879380469        5.9826398742
 Cd        -2.2740392880        5.5405390201       -4.1121151905
 Cd         0.1544605868        4.6148591834       -0.9823355315
 Cd         2.6165200670        3.7533532168        2.4610250971
 Cd         4.3939118237        2.5015206683        5.6446872792
 Cd        -2.3864770427        3.0937036268       -7.5398943934
 Cd        -0.1312635535        1.7709116012       -4.3474163899
 Cd         2.1531607019        0.8600185862       -0.9631983973
 Cd         4.3034591684       -0.4402630439        2.5248097816
 Cd         6.4920185902       -0.6517893969        6.0104803337
 Cd         0.4042643691       -0.5927778758       -7.0621298779
 Cd         2.1513044948       -1.8410900710       -3.9633274705
 Cd         4.1299641982       -2.9780199955       -0.5482290902
 Cd         6.9198161087       -3.7969783277        2.8855298107
 Cd         1.0695394900       -4.7691936462       -6.7906732747
 Cd         3.6506184624       -5.7625098648       -3.6177116894
 Cd         5.7329579368       -6.5640204717       -0.3327685255
 Cd         2.4551206255        8.1222954777       -1.1565981033
 Cd         4.4053336460        7.2897928208        1.7948228323
 Cd         2.3804040212        5.2452005465       -4.8087214059
 Cd         4.8189745263        4.7184507719       -1.4284034407
 Cd         6.7582242415        3.8401481896        2.0311401232
 Cd         2.6218021972        2.7828923032       -7.7033758783
 Cd         4.8493385813        1.7846637564       -4.5231288138
 Cd         6.7277085206        1.0650163950       -0.9631024106
 Cd         8.8867399137        0.4155710871        2.4347925829
 Cd         4.3617909533       -0.9226043545       -7.7309257856
 Cd         6.7427691511       -1.9756115395       -4.2012690366
 Cd         8.5291275754       -2.6208003699       -0.2527856153
 Se        -9.0547887166        0.2428820773        0.9183182852
 Se        -6.3727655215       -0.6564847914        4.4183088744
 Se        -3.9345356572       -1.3489398398        8.2965337073
 Se        -6.5831296301       -3.7425302190        1.3880866383
 Se        -4.5790843484       -4.2748347424        4.8597304687
 Se        -4.6122336079       -7.7765952173        1.5328379826
 Se        -6.6422749354        3.9855706550        0.4577096992
 Se        -4.0719719428        2.6208504609        3.9142948951
 Se        -1.6333263541        2.0117369799        7.9251367377
 Se        -6.7116758555        0.9828952137       -3.1654762964
 Se        -4.4070722211       -0.2111884921        0.3948905651
 Se        -2.0531412123       -1.1153524436        4.2593873911
 Se         0.4060037232       -1.5661504007        8.0650878739
 Se        -4.4160797188       -3.1299878421       -2.8046678270
 Se        -2.2374494154       -4.0915919756        0.9472055133
 Se         0.1530614894       -4.8127608080        4.4858039926
 Se        -2.4165662769       -7.4206243068       -2.0539519383
 Se        -0.0669632748       -7.8791436578        1.3095369853
 Se        -4.5521375406        7.5948443333       -0.0125941805
 Se        -1.8467569355        6.3632996731        3.5400705620
 Se         0.4037033542        5.8261674242        7.5858801696
 Se        -4.4660372096        4.5539646333       -3.3489562350
 Se        -2.0809901614        3.7152542356        0.3431795438
 Se         0.4982282863        2.6970081397        3.7286773062
 Se         2.7717992467        1.9958735234        7.6262250193
 Se        -4.6131865544        2.0747802770       -6.9049123087
 Se        -2.2788917750        0.8535275580       -3.1260984559
 Se         0.0145513320       -0.1632196954        0.3853958123
 Se         2.3129681645       -1.3189368312        3.9990076291
 Se         4.8631552682       -1.8843017870        7.7354201313
 Se        -2.0702150678       -1.9664169925       -6.4603828998
 Se        -0.0447281262       -3.1599302058       -2.8087924795
 Se         2.2323309484       -4.2314631236        0.7809382311
 Se         4.8362415245       -4.9530932863        4.0967216269
 Se        -0.7551446627       -6.2848256216       -5.8413963331
 Se         1.9250141423       -7.4790563744       -2.6076305105
 Se         4.2593673458       -8.3791896371        0.7364055641
 Se         0.0356438457        7.3686246021       -0.4913408558
 Se         2.3809171070        6.5252201508        3.1424665564
 Se         0.0437178484        4.4288362083       -3.5939999818
 Se         2.5163938773        3.6274402970       -0.0568246846
 Se         4.7727011201        2.4661911778        3.1253335973
 Se         0.0455232912        1.9299719288       -6.9705064237
 Se         2.2758300559        0.7648361282       -3.6570716442
 Se         4.3766545471       -0.2853665594       -0.0177980912
 Se         6.9677214142       -1.1294308517        3.5582475974
 Se         2.2370003437       -2.2681796772       -6.6837686220
 Se         4.3737419661       -3.1974959613       -3.2156668174
 Se         6.4331634859       -4.1116859167        0.4129773976
 Se         4.8515436395        7.5524235849       -0.7459230001
 Se         4.8774916281        4.5489896832       -4.0122298091
 Se         7.0855989224        3.5934566707       -0.6429056995
 Se         4.7816923548        1.5264199607       -7.5555497274
 Se         6.9185589449        0.6112281236       -3.7073756847
 Se         9.1068736486       -0.0626929313       -0.0923319314
  C         6.9966797084       -6.9498474379       -2.8612692086
  H         7.7649322095       -7.1224747738       -3.6684216540
  O         5.8439871084       -6.4672176304       -3.1401089387
  O         7.2885050489       -7.2741287255       -1.6935822383
  C         3.3950624977       -6.2673102565       -6.9491850127
  H         4.3444066225       -6.8936096686       -7.0753272229
  O         3.0188376992       -5.7908952763       -5.7819721461
  O         2.6177112404       -6.1689189574       -7.9239889851
  C         6.3106280886       -2.9078481700       -7.4910638952
  H         7.1299137504       -3.7048862282       -7.4466889051
  O         6.0085494337       -2.3181958385       -6.3474090853
  O         5.9393665629       -2.4742431594       -8.6124747930
  C         8.9774542414       -3.3708792244       -3.4296517155
  H         9.9250180562       -3.8774829974       -3.1826003730
  O         8.5682740405       -3.4148695712       -4.6046253617
  O         8.2717367824       -2.6966777108       -2.5200220834
  C         9.7980802166       -4.6252030884        2.1810003009
  H        10.6408655401       -5.3318691344        2.3887999993
  O         9.7470856589       -4.1805032608        0.9925793280
  O         9.0285765719       -4.5681232983        3.1870415181
  C        -2.8217333518       -8.8884440761        5.3598596932
  H        -2.4154187803       -9.9024293192        5.4343946394
  O        -1.9847289401       -7.9306597775        5.0423372026
  O        -4.0904683687       -8.7274504000        5.4044197397
  C         2.9969234097       -8.6916287989        5.2874256608
  H         2.6967725338       -9.0398269484        6.2934215078
  O         1.9993109885       -8.3578735855        4.5594207304
  O         4.2233791824       -8.6005576586        4.9154407225
  C         2.8793074992       -5.7053265660        8.2324327144
  H         2.3955873073       -6.3773024893        8.9303283437
  O         2.2189529815       -4.8088265794        7.6163588677
  O         4.1498442001       -5.9034743458        8.1536038527
  C        -2.5347147102       -5.9173471438        8.5220140707
  H        -2.0052498086       -6.7390725628        9.0096019785
  O        -1.9214121860       -5.2583499175        7.5983350648
  O        -3.6522446612       -5.5084098432        8.8927696552
  C        -6.8630692568        2.3027049857        7.3892152249
  H        -7.2086193538        3.3071349018        7.3885257928
  O        -5.6212966760        2.1591194313        7.5337081566
  O        -7.6695600332        1.3702647394        7.1999502493
  C        -4.1169944632        6.2828081216        7.2281975693
  H        -5.2418933127        6.2896177269        7.3832000201
  O        -3.5266749442        5.2290419715        6.7738383754
  O        -3.5910934243        7.4673401216        7.3180674950
  C        -6.2567460526        7.1462489378        4.0780904015
  H        -7.2111390447        7.1649409639        4.6689854642
  O        -5.8090618225        6.0478438845        3.6278704122
  O        -5.6127616563        8.2207280276        3.8487110906
  C        -9.2742278526        2.9617611646        4.4604749134
  H        -9.7855372140        3.8838940690        4.7760086716
  O        -8.0588288579        3.0119126229        4.1192787075
  O       -10.0811009985        1.9792612921        4.3921888891
  C        -9.6032849791       -3.5282231927        4.2551701381
  H       -10.5971720209       -3.6001750875        4.7566807035
  O        -9.3832981327       -2.7227965627        3.2942642410
  O        -8.6785830475       -4.3016742364        4.7629725570
  C        -5.4081381529       -6.0792392243       -6.1562002010
  H        -6.0546960796       -6.5859836395       -6.8890942905
  O        -5.3110429535       -6.5041030444       -4.9651895547
  O        -4.7984036311       -5.0927480296       -6.6853162731
  C        -7.4874971983       -7.2705818263       -1.8347926931
  H        -7.8388434959       -7.7173330376       -2.7530342297
  O        -6.3887504260       -6.5550007831       -1.8843003570
  O        -8.0716995790       -7.4409205545       -0.7458341647
  C        -9.2562862011       -3.4269950916       -2.1219784245
  H        -9.5270787848       -4.0663584857       -2.9594189931
  O        -8.1698340111       -2.7554113847       -2.2727221159
  O        -9.8242344336       -3.4939691376       -1.0092104021
  C        -6.7207132335       -1.5101391785       -7.0046064828
  H        -7.7450574417       -1.9674181007       -7.1698505571
  O        -6.3198526873       -1.2781045212       -5.7990099285
  O        -6.0633085253       -1.2634598224       -8.0155209477
  C        -1.9629149393        5.6954918254       -7.4853241295
  H        -1.7770888886        6.7764005651       -7.4923242406
  O        -2.4611922458        5.1867201405       -6.4087073990
  O        -1.7564086629        5.0404184214       -8.5283634224
  C        -1.7169005412        9.0075174437       -3.7839131846
  H        -1.3493405476        9.2660238074       -4.8465614694
  O        -1.7700483423        7.7194695001       -3.5246307092
  O        -1.9637537364        9.8895962409       -2.9408502204
  C         2.5062467189        8.6538949155       -4.1272904615
  H         2.7131102182        9.0638249498       -5.0476060874
  O         2.0944621645        7.4532394098       -4.0307305399
  O         2.6627630677        9.4111725068       -3.1552453620
  C         1.7411676331        5.3672438410       -8.1968741351
  H         1.4358383610        6.4416008070       -8.3632925476
  O         2.2781625968        5.0766137941       -7.0407030810
  O         1.5312354564        4.4833600854       -9.0175881232
  C         9.4768975905        2.6096293324        3.8999955141
  H         9.6131090334        3.4671477718        4.5843902861
  O         8.5279991610        2.7173661318        3.0491810081
  O        10.1885532638        1.5401522888        4.0331013672
  C         6.6326657971        7.0383163454        3.3281982044
  H         7.5082674956        7.1289998248        4.0070788575
  O         6.4945002163        6.1604231877        2.4465585369
  O         5.7954893324        7.9030167458        3.5812937497
  C         4.7447640107        5.8524880792        6.9354097586
  H         5.7085862008        5.7040540943        7.4370666698
  O         4.3285999595        4.9885524556        6.0815368008
  O         4.1456624124        6.9224106334        7.1371743247
  C         7.5603404562        1.7452803987        7.1878960678
  H         8.1158840311        2.6116602203        7.6593692779
  O         6.7458757994        2.0302562001        6.2244595182
  O         7.8435157390        0.5821528882        7.5895421090
     227
 i =        2, time =        2.000, E =        -8.8390956727
 Cd        -8.6169976996        0.4782974596        3.4767489653
 Cd        -5.8707149547       -0.2577032186        7.1136626550
 Cd        -8.4088487111       -2.1551413397        0.3836983254
 Cd        -6.8897049522       -3.2939514788        3.9621523681