     227
 i =        0, time =        0.000, E =       -30.4783610782
 Cd        -8.6216924880        0.4810107428        3.4775887729
 Cd        -5.8723589632       -0.2566559957        7.1151373767
 Cd        -8.4076147924       -2.1531404527        0.3867588804
 Cd        -6.8957642261       -3.2896665849        3.9600318291
 Cd        -3.6930098048       -3.6992689615        7.3819491709
 Cd        -6.4429261463       -6.2347087238        0.4622469067
 Cd        -4.3123952394       -6.8285875372        3.9039095072
 Cd        -6.1141073353        3.8626235599        2.9066844924
 Cd        -3.6048790416        2.8797284733        6.5917986711
 Cd        -6.7531255596        1.1841266196       -0.3182182747
 Cd        -4.0437606329        0.0729837467        3.0511954168
 Cd        -1.7753257667       -0.3121054857        6.8316599018
 Cd        -6.3661028473       -1.4630135273       -3.4383357626
 Cd        -4.3602814436       -3.1214810613       -0.1759283953
 Cd        -2.2424276819       -3.6242998489        3.6335413818
 Cd         0.1757294635       -3.9625201566        7.0364714760
 Cd        -4.2692200317       -5.9860442556       -3.0005266361
 Cd        -2.2482225396       -6.7972628816        0.6786391664
 Cd         0.0669003827       -7.3030327295        3.8545421700
 Cd        -4.0792754193        7.4105475565        2.4175118797
 Cd        -1.6116442377        6.4880648240        6.2478272306
 Cd        -4.3308002626        4.8127262164       -0.6762739309
 Cd        -1.8326132452        3.6694977750        3.1598212265
 Cd         0.4939817277        3.1637060931        6.7202662426
 Cd        -4.5980154021        1.9988297698       -4.0880170010
 Cd        -2.1651194586        1.0165564496       -0.4536921834
 Cd         0.1376109507       -0.0659106884        3.1336818174
 Cd         2.6419074521       -0.6636939286        6.8958319365
 Cd        -4.1515129292       -0.5348426091       -6.9620217917
 Cd        -2.2012490343       -1.8491984656       -3.4894107829
 Cd         0.0359311218       -2.8494155653       -0.0264680683
 Cd         2.4407298775       -3.8224684908        3.5289587884
 Cd         4.5907434619       -4.2169180472        6.5928471603
 Cd        -2.6321953796       -4.5685798778       -6.0773989300
 Cd        -0.3638438279       -6.1221236347       -3.0620735359
 Cd         1.9882729153       -6.8506852632       -0.0376753302
 Cd         4.3604701588       -7.5063202656        3.0981086138
 Cd        -2.4313710890        8.2839908015       -1.2010761441
 Cd         0.1210964618        6.7915494583        2.0748938605
 Cd         2.2602783261        6.3879934074        5.9824457591
 Cd        -2.2743307721        5.5403016700       -4.1096429978
 Cd         0.1552258413        4.6164378819       -0.9814446932
 Cd         2.6173372932        3.7540356816        2.4616712460
 Cd         4.3934694910        2.5024270436        5.6448470259
 Cd        -2.3839877703        3.0961459608       -7.5397423510
 Cd        -0.1308699873        1.7716472388       -4.3458913396
 Cd         2.1522040622        0.8595996928       -0.9600505658
 Cd         4.3027041934       -0.4425155449        2.5248589789
 Cd         6.4943132815       -0.6514444341        6.0110723312
 Cd         0.4032906214       -0.5920449882       -7.0625722312
 Cd         2.1504065746       -1.8410095193       -3.9631978812
 Cd         4.1282053355       -2.9764966895       -0.5499119195
 Cd         6.9189885741       -3.8001688729        2.8840486736
 Cd         1.0693858855       -4.7693596381       -6.7909688629
 Cd         3.6529341800       -5.7620820022       -3.6150795142
 Cd         5.7341856059       -6.5625995016       -0.3323817960
 Cd         2.4532379782        8.1225833618       -1.1556872380
 Cd         4.4025673150        7.2904811152        1.7928276254
 Cd         2.3800547108        5.2453457502       -4.8107637235
 Cd         4.8184663347        4.7191125514       -1.4277792117
 Cd         6.7589411702        3.8390778732        2.0295448973
 Cd         2.6210634084        2.7844913241       -7.7035228004
 Cd         4.8495943395        1.7843685348       -4.5225056138
 Cd         6.7261500983        1.0662237140       -0.9642295531
 Cd         8.8881450478        0.4141445330        2.4369093904
 Cd         4.3615782352       -0.9213178924       -7.7328888960
 Cd         6.7438649008       -1.9767569930       -4.2031112584
 Cd         8.5272445020       -2.6218905711       -0.2551455218
 Se        -9.0557725106        0.2424574140        0.9180313808
 Se        -6.3745872764       -0.6570220647        4.4225742627
 Se        -3.9358548519       -1.3506397678        8.2925868769
 Se        -6.5830028390       -3.7408669090        1.3890860046
 Se        -4.5802302415       -4.2716541219        4.8585926421
 Se        -4.6110671623       -7.7792240778        1.5343213278
 Se        -6.6407812351        3.9866809498        0.4586064126
 Se        -4.0705866514        2.6241591830        3.9150270775
 Se        -1.6315747320        2.0143859544        7.9219454430
 Se        -6.7106235468        0.9827493806       -3.1628202938
 Se        -4.4077684895       -0.2106461950        0.3970531668
 Se        -2.0534879979       -1.1190641497        4.2604482105
 Se         0.4069246601       -1.5676855049        8.0617057342
 Se        -4.4126107232       -3.1307459794       -2.8028288282
 Se        -2.2371864822       -4.0884616040        0.9473336128
 Se         0.1541797359       -4.8148952714        4.4843326207
 Se        -2.4147106009       -7.4199706225       -2.0529393442
 Se        -0.0662571417       -7.8800811154        1.3078284855
 Se        -4.5519687636        7.5920037884       -0.0122560791
 Se        -1.8482840651        6.3647212661        3.5390459072
 Se         0.4006735392        5.8241498358        7.5878867146
 Se        -4.4655945585        4.5529209660       -3.3484418515
 Se        -2.0798083538        3.7153034916        0.3451575142
 Se         0.4973892782        2.6967113851        3.7286137790
 Se         2.7724753484        1.9958260876        7.6298945277
 Se        -4.6126224962        2.0736182894       -6.9031574659
 Se        -2.2770211290        0.8531533747       -3.1284312065
 Se         0.0138865169       -0.1636477002        0.3858468104
 Se         2.3115473387       -1.3198431962        4.0017354986
 Se         4.8624545925       -1.8855864388        7.7371297607
 Se        -2.0700877949       -1.9675257511       -6.4603372509
 Se        -0.0447057629       -3.1582708631       -2.8090856920
 Se         2.2343306950       -4.2299664240        0.7817840723
 Se         4.8342987615       -4.9516929708        4.0974643468
 Se        -0.7556003326       -6.2829108386       -5.8406699955
 Se         1.9243057511       -7.4784768035       -2.6074198353
 Se         4.2543989663       -8.3809591814        0.7363809319
 Se         0.0386925703        7.3677075300       -0.4939635450
 Se         2.3791568525        6.5289221229        3.1400383851
 Se         0.0465974103        4.4270318221       -3.5936563407
 Se         2.5167269427        3.6273521599       -0.0581806204
 Se         4.7705604635        2.4670139639        3.1233546104
 Se         0.0435933033        1.9323944164       -6.9695738842
 Se         2.2733127965        0.7623703678       -3.6584263160
 Se         4.3816175435       -0.2841549253       -0.0177063702
 Se         6.9670500347       -1.1290204494        3.5565582379
 Se         2.2410869402       -2.2702007814       -6.6798205275
 Se         4.3723294721       -3.1971869108       -3.2130677403
 Se         6.4331938555       -4.1098532443        0.4136420186
 Se         4.8503033307        7.5509093293       -0.7463548497
 Se         4.8776288797        4.5477652435       -4.0091414448
 Se         7.0830986217        3.5950723552       -0.6434567968
 Se         4.7810064642        1.5273410534       -7.5566303287
 Se         6.9188050062        0.6130038217       -3.7081238627
 Se         9.1066871843       -0.0609359671       -0.0919647969
  C         6.9955771113       -6.9586634775       -2.8583426301
  H         7.7780160969       -7.1271873265       -3.6573399650
  O         5.8389952916       -6.4652991204       -3.1445809228
  O         7.2920676004       -7.2683568805       -1.6893132711
  C         3.3939431960       -6.2668607509       -6.9513074648
  H         4.3245440932       -6.8689211647       -7.0591687882
  O         3.0202466073       -5.7860511295       -5.7843136273
  O         2.6220129789       -6.1746538788       -7.9242101403
  C         6.3116555909       -2.9071154185       -7.4921130606
  H         7.0978863851       -3.7212906458       -7.4285512081
  O         6.0096715894       -2.3219711192       -6.3505932827
  O         5.9403243477       -2.4750431756       -8.6116316973
  C         8.9837561036       -3.3697375837       -3.4349055328
  H         9.9249943929       -3.8864043165       -3.1840078659
  O         8.5659407989       -3.4209184445       -4.6048832464
  O         8.2714489672       -2.6971151254       -2.5207012617
  C         9.7902109758       -4.6282247391        2.1768529346
  H        10.6284324694       -5.3337138149        2.3552924638
  O         9.7484501532       -4.1824896055        0.9942458601
  O         9.0219926648       -4.5705851174        3.1873629795
  C        -2.8252708508       -8.8894178348        5.3653894160
  H        -2.3915771747       -9.8892286280        5.4446685031
  O        -1.9808601030       -7.9304545651        5.0436955975
  O        -4.0908415257       -8.7280019527        5.4030844137
  C         3.0047406823       -8.6887063298        5.2919739424
  H         2.6853413808       -9.0312323512        6.2714246943
  O         1.9985977812       -8.3553887881        4.5599054594
  O         4.2197147413       -8.6069092298        4.9235206312
  C         2.8732291572       -5.7090624943        8.2322507888
  H         2.4095730423       -6.3582442170        8.9295273658
  O         2.2236878889       -4.8031284854        7.6183804854
  O         4.1525405945       -5.8988692439        8.1468427445
  C        -2.5324052264       -5.9090323801        8.5168983878
  H        -2.0058427467       -6.7599986745        9.0204193621
  O        -1.9189018681       -5.2527647032        7.5983339134
  O        -3.6521974131       -5.4981014961        8.8936623702
  C        -6.8661340661        2.3082426882        7.3884767521
  H        -7.2433530482        3.2983326111        7.3747512577
  O        -5.6189307919        2.1553364867        7.5292857639
  O        -7.6694328727        1.3672322100        7.2032576312
  C        -4.1128935570        6.2776012356        7.2258109093
  H        -5.2184092536        6.2949225170        7.4003980339
  O        -3.5215502414        5.2331222329        6.7794929280
  O        -3.5956064510        7.4679880815        7.3184340370
  C        -6.2584500423        7.1467273309        4.0778865765
  H        -7.2018864753        7.1620259062        4.6862261037
  O        -5.8042352338        6.0508881806        3.6277903665
  O        -5.6141473350        8.2227071687        3.8530055117
  C        -9.2670155991        2.9624473135        4.4549609073
  H        -9.7760873251        3.8307467380        4.7753730710
  O        -8.0580447847        3.0137717908        4.1153681461
  O       -10.0869615960        1.9755230626        4.3964141791
  C        -9.5997958208       -3.5202239981        4.2555074891
  H       -10.6284324694       -3.6062117458        4.7363993397
  O        -9.3836198173       -2.7271085544        3.2939504316
  O        -8.6749593009       -4.3055307223        4.7674147240
  C        -5.4063829718       -6.0836320759       -6.1576393485
  H        -6.0390997038       -6.5934387315       -6.8768176703
  O        -5.3157147411       -6.5042627408       -4.9638375967
  O        -4.7997118332       -5.0931497246       -6.6842330004
  C        -7.4812021438       -7.2683192216       -1.8337008205
  H        -7.8430239833       -7.7214409635       -2.7403108931
  O        -6.3847231004       -6.5596142310       -1.8855223803
  O        -8.0870004405       -7.4369608581       -0.7449951352
  C        -9.2637717352       -3.4248031045       -2.1287629167
  H        -9.5435102925       -4.0726156799       -2.9624854104
  O        -8.1685743898       -2.7562864935       -2.2769679175
  O        -9.8293124780       -3.4993302663       -1.0042472880
  C        -6.7198117275       -1.5155721631       -7.0057360974
  H        -7.7266400310       -1.9701098143       -7.1795729881
  O        -6.3208037730       -1.2812141421       -5.7891801227
  O        -6.0546670581       -1.2647410752       -8.0219575549
  C        -1.9610306020        5.6962737072       -7.4797868569
  H        -1.8068881661        6.7616764611       -7.4798700689
  O        -2.4613788677        5.1953402046       -6.4147373301
  O        -1.7592038190        5.0404242691       -8.5376948407
  C        -1.7153677193        9.0065729983       -3.7807068554
  H        -1.3518565997        9.2891789052       -4.8285272378
  O        -1.7735635219        7.7204009534       -3.5311974415
  O        -1.9589811591        9.8892286280       -2.9296575010
  C         2.5176986766        8.6527359013       -4.1276241396
  H         2.7356319561        9.0838176512       -5.0545617483
  O         2.0941304229        7.4607563111       -4.0382054964
  O         2.6632020791        9.4136986823       -3.1567247192
  C         1.7405814703        5.3615037054       -8.2026998584
  H         1.4592813282        6.4433815072       -8.3446733349
  O         2.2712544771        5.0744229803       -7.0359036782
  O         1.5374971892        4.4786315137       -9.0204193621
  C         9.4791869119        2.6134878200        3.9079418032
  H         9.6264681644        3.4611325178        4.5867541287
  O         8.5294682966        2.7206869475        3.0468687327
  O        10.1884170796        1.5361363159        4.0354546634
  C         6.6320899766        7.0427804887        3.3240585285
  H         7.5183451153        7.1103565644        4.0025867163
  O         6.4921259472        6.1579139584        2.4473334656
  O         5.8014508194        7.8970951585        3.5804466065
  C         4.7468288793        5.8510846562        6.9391041765
  H         5.6837062732        5.7110173508        7.4566454645
  O         4.3315486404        4.9881730889        6.0840680113
  O         4.1390624477        6.9214380767        7.1338855679
  C         7.5642974957        1.7429307679        7.1823006621
  H         8.1116275708        2.6102062210        7.6466333920
  O         6.7423080014        2.0330978891        6.2208765696
  O         7.8434776238        0.5800715711        7.5931108165
     227
 i =        1, time =        1.000, E =       -30.4896118311
 Cd        -8.6193531892        0.4796808292        3.4771631117
 Cd        -5.8715323812       -0.2571531098        7.1144127502
 Cd        -8.4082588840       -2.1541444693        0.3852244769
 Cd        -6.8927499378       -3.2918116548        3.9610886141
 Cd        -3.6901766132       -3.7004144372        7.3824317750
 Cd        -6.4419966804       -6.2357941180        0.4642378342
 Cd        -4.3123495791       -6.8296713276        3.9052279714
 Cd        -6.1164122917        3.8609475333        2.9055695343
 Cd        -3.6066467531        2.8812453299        6.5904582764
 Cd        -6.7534614418        1.1872563311       -0.3192365723
 Cd        -4.0444598437        0.0755225227        3.0502078564
 Cd        -1.7741748910       -0.3125709877        6.8336564562
 Cd        -6.3661336179       -1.4624143715       -3.4401955929
 Cd        -4.3613594822       -3.1217871124       -0.1745466557
 Cd        -2.2426245497       -3.6215625663        3.6336312721
 Cd         0.1787315865       -3.9616002292        7.0369696970
 Cd        -4.2694109547       -5.9882847332       -2.9988785220
 Cd        -2.2486935058       -6.7966761409        0.6791438188
 Cd         0.0677972757       -7.3030177481        3.8542388345
 Cd        -4.0803646427        7.4119296436        2.4182732296
 Cd        -1.6108227436        6.4879145293        6.2510166358
 Cd        -4.3325884594        4.8128183195       -0.6769792212
 Cd        -1.8304236010        3.6696068298        3.1589467578
 Cd         0.4898089731        3.1633164778        6.7206066856
 Cd        -4.5996969544        2.0001464302       -4.0890131037
 Cd        -2.1629258997        1.0181310591       -0.4517751689
 Cd         0.1384426411       -0.0681797005        3.1344468710
 Cd         2.6424341756       -0.6635612610        6.8959837347
 Cd        -4.1541501642       -0.5351573990       -6.9611403263
 Cd        -2.2031993344       -1.8491103298       -3.4900315130
 Cd         0.0358072657       -2.8475335128       -0.0251041925
 Cd         2.4397079343       -3.8215597122        3.5304758101
 Cd         4.5938177115       -4.2152220781        6.5947273924
 Cd        -2.6317182063       -4.5700120786       -6.0785738600
 Cd        -0.3609666644       -6.1211409315       -3.0631548702
 Cd         1.9863936708       -6.8524065671       -0.0374728009
 Cd         4.3578478159       -7.5050995923        3.0974326162
 Cd        -2.4320603676        8.2867334762       -1.2004120095
 Cd         0.1211456695        6.7911590075        2.0748111013
 Cd         2.2581612551        6.3879283656        5.9827151517
 Cd        -2.2740524693        5.5405608251       -4.1121564164
 Cd         0.1544533610        4.6148900043       -0.9823812219
 Cd         2.6165433146        3.7533387908        2.4610136118
 Cd         4.3939644253        2.5015668935        5.6447181897
 Cd        -2.3864998311        3.0937884720       -7.5398833922
 Cd        -0.1312648936        1.7709665864       -4.3474385953
 Cd         2.1532241018        0.8600304534       -0.9632236296
 Cd         4.3034998858       -0.4402394868        2.5247920089
 Cd         6.4920685219       -0.6517517491        6.0105156184
 Cd         0.4042678532       -0.5927850976       -7.0621327544
 Cd         2.1513590385       -1.8411155045       -3.9633579109
 Cd         4.1300259672       -2.9780360195       -0.5482479983
 Cd         6.9198450851       -3.7969869804        2.8855098688
 Cd         1.0696248611       -4.7692700828       -6.7906570316
 Cd         3.6506709002       -5.7625524583       -3.6177564114
 Cd         5.7330177142       -6.5640620400       -0.3328236995
 Cd         2.4551430806        8.1223080392       -1.1566941581
 Cd         4.4054128751        7.2897881716        1.7948608375
 Cd         2.3804157045        5.2452638184       -4.8087453365
 Cd         4.8190366456        4.7184712623       -1.4284517817
 Cd         6.7582708634        3.8401571315        2.0311549570
 Cd         2.6218072535        2.7829628945       -7.7033884790
 Cd         4.8494104184        1.7846794258       -4.5231239775
 Cd         6.7277813506        1.0650401820       -0.9631466484
 Cd         8.8867541989        0.4156133837        2.4347949656
 Cd         4.3618746874       -0.9226348028       -7.7308998313
 Cd         6.7428182383       -1.9756420158       -4.2012796639
 Cd         8.5291414902       -2.6208189822       -0.2528340860
 Se        -9.0546439769        0.2427981785        0.9183496918
 Se        -6.3727244133       -0.6565312613        4.4182879366
 Se        -3.9345624709       -1.3489972576        8.2963815476
 Se        -6.5830847912       -3.7425297332        1.3880636479
 Se        -4.5790182051       -4.2748434692        4.8597017031
 Se        -4.6122133790       -7.7764182457        1.5328825745
 Se        -6.6421342491        3.9855046900        0.4577474477
 Se        -4.0718737167        2.6208385153        3.9142486671
 Se        -1.6333417385        2.0117235109        7.9249147841
 Se        -6.7115386979        0.9828209505       -3.1654265949
 Se        -4.4070153025       -0.2111743669        0.3949320366
 Se        -2.0531142512       -1.1153433827        4.2593351192
 Se         0.4059993019       -1.5662068617        8.0649269598
 Se        -4.4159981829       -3.1299347703       -2.8046219117
 Se        -2.2374461193       -4.0915526804        0.9472014731
 Se         0.1530662002       -4.8127270791        4.4857624164
 Se        -2.4165759331       -7.4204350680       -2.0539688914
 Se        -0.0669741540       -7.8789752918        1.3095769452
 Se        -4.5519502474        7.5948021165       -0.0125454512
 Se        -1.8466645696        6.3632823881        3.5400082205
 Se         0.4036866706        5.8261688223        7.5856809459
 Se        -4.4658954663        4.5539202366       -3.3489210819
 Se        -2.0809365515        3.7152362898        0.3431500300
 Se         0.4981762530        2.6970220264        3.7286358139
 Se         2.7717655186        1.9958321734        7.6260188310
 Se        -4.6130169844        2.0746853806       -6.9048789049
 Se        -2.2788320090        0.8534727643       -3.1260983750
 Se         0.0145490033       -0.1632319221        0.3853935883
 Se         2.3129874079       -1.3189193946        3.9989426131
 Se         4.8631238179       -1.8843235349        7.7352287643
 Se        -2.0702276552       -1.9663948594       -6.4603340723
 Se        -0.0447517042       -3.1598621469       -2.8087727747
 Se         2.2323144442       -4.2313902452        0.7809143199
 Se         4.8362098064       -4.9530285597        4.0967190825
 Se        -0.7551577996       -6.2846359426       -5.8413818239
 Se         1.9249902707       -7.4788604186       -2.6075599744
 Se         4.2593814465       -8.3790182101        0.7364686769
 Se         0.0356813305        7.3685531288       -0.4912179671
 Se         2.3808517578        6.5252105686        3.1423927477
 Se         0.0437063109        4.4287620203       -3.5939552537
 Se         2.5163208106        3.6274531825       -0.0567969659
 Se         4.7726282519        2.4661937672        3.1253439811
 Se         0.0455197287        1.9298125455       -6.9704185318
 Se         2.2757439269        0.7647857878       -3.6570085290
 Se         4.3765779422       -0.2853855700       -0.0177448900
 Se         6.9676495503       -1.1294667049        3.5582702326
 Se         2.2368655155       -2.2680661525       -6.6837404235
 Se         4.3736159483       -3.1974571659       -3.2155783261
 Se         6.4330868436       -4.1116618856        0.4130514571
 Se         4.8513688031        7.5523819867       -0.7458069670
 Se         4.8773574339        4.5489189759       -4.0121513347
 Se         7.0854496024        3.5933959696       -0.6428205897
 Se         4.7815275791        1.5263628318       -7.5555292015
 Se         6.9183975875        0.6112120546       -3.7073212899
 Se         9.1067706623       -0.0627592618       -0.0922247425
  C         6.9966569358       -6.9497230144       -2.8612749740
  H         7.7649322095       -7.1224747738       -3.6684216540
  O         5.8437571737       -6.4671506090       -3.1399685871
  O         7.2882154751       -7.2739351244       -1.6933692230
  C         3.3951178939       -6.2672421458       -6.9491176751
  H         4.3444066225       -6.8936096686       -7.0753272229
  O         3.0187197806       -5.7906865558       -5.7817642142
  O         2.6175203910       -6.1686648558       -7.9238207692
  C         6.3106256808       -2.9078899159       -7.4909241366
  H         7.1299137504       -3.7048862282       -7.4466889051
  O         6.0084797355       -2.3180362791       -6.3473041683
  O         5.9391124484       -2.4740372967       -8.6123067916
  C         8.9773543820       -3.3709043873       -3.4296027850
  H         9.9250180562       -3.8774829974       -3.1826003730
  O         8.5680016317       -3.4146915634       -4.6045038764
  O         8.2715234382       -2.6966821322       -2.5199347535
  C         9.7979858088       -4.6251660414        2.1809628516
  H        10.6408655401       -5.3318691344        2.3887999993
  O         9.7468820916       -4.1802638856        0.9925221687
  O         9.0282081211       -4.5679538095        3.1869815074
  C        -2.8216957062       -8.8883452816        5.3598603423
  H        -2.4154187803       -9.9024293192        5.4343946394
  O        -1.9846988744       -7.9304788873        5.0421665271
  O        -4.0904338561       -8.7271436602        5.4042431772
  C         2.9968973426       -8.6915245944        5.2874418003
  H         2.6967725338       -9.0398269484        6.2934215078
  O         1.9992338700       -8.3576334980        4.5593057088
  O         4.2233566831       -8.6003092857        4.9151147103
  C         2.8792549262       -5.7053334005        8.2323520856
  H         2.3955873073       -6.3773024893        8.9303283437
  O         2.2188734196       -4.8087023101        7.6160890735
  O         4.1498386548       -5.9032441928        8.1532969401
  C        -2.5346904038       -5.9173590215        8.5218939187
  H        -2.0052498086       -6.7390725628        9.0096019785
  O        -1.9214575835       -5.2580175300        7.5982525062
  O        -3.6522283072       -5.5081577568        8.8924906311
  C        -6.8630487115        2.3027211316        7.3890781833
  H        -7.2086193538        3.3071349018        7.3885257928
  O        -5.6211147320        2.1589709567        7.5334866926
  O        -7.6692771077        1.3700809718        7.1999186482
  C        -4.1170269718        6.2827464487        7.2281024502
  H        -5.2418933127        6.2896177269        7.3832000201
  O        -3.5264448914        5.2289308927        6.7736784761
  O        -3.5908359977        7.4671777592        7.3178490683
  C        -6.2566992019        7.1461642731        4.0781256261
  H        -7.2111390447        7.1649409639        4.6689854642
  O        -5.8088681881        6.0477430059        3.6277477413
  O        -5.6124306739        8.2204962925        3.8485007403
  C        -9.2741210713        2.9617010337        4.4605075000
  H        -9.7855372140        3.8838940690        4.7760086716
  O        -8.0586421749        3.0118281894        4.1191688893
  O       -10.0808160743        1.9790231455        4.3920904861
  C        -9.6032119058       -3.5281818741        4.2551267077
  H       -10.5971720209       -3.6001750875        4.7566807035
  O        -9.3829958165       -2.7227284880        3.2942839596
  O        -8.6782777687       -4.3014745512        4.7628410046
  C        -5.4081396189       -6.0791682061       -6.1561243633
  H        -6.0546960796       -6.5859836395       -6.8890942905
  O        -5.3107984856       -6.5038800239       -4.9649501107
  O        -4.7981051253       -5.0926337936       -6.6851422670
  C        -7.4874512760       -7.2704677498       -1.8348120058
  H        -7.8388434959       -7.7173330376       -2.7530342297
  O        -6.3885817595       -6.5548060902       -1.8841066566
  O        -8.0714318107       -7.4406902994       -0.7456542533
  C        -9.2561817798       -3.4270345208       -2.1219449297
  H        -9.5270787848       -4.0663584857       -2.9594189931
  O        -8.1696590938       -2.7552935434       -2.2726035957
  O        -9.8239828771       -3.4938238314       -1.0090688634
  C        -6.7206711752       -1.5102071212       -7.0045313467
  H        -7.7450574417       -1.9674181007       -7.1698505571
  O        -6.3195535668       -1.2781737341       -5.7988488789
  O        -6.0629962112       -1.2634301518       -8.0153175438
  C        -1.9628375497        5.6954740784       -7.4852512531
  H        -1.7770888886        6.7764005651       -7.4923242406
  O        -2.4610515117        5.1865233386       -6.4085982119
  O        -1.7564834470        5.0400828457       -8.5281095200
  C        -1.7168243284        9.0074326564       -3.7839214401
  H        -1.3493405476        9.2660238074       -4.8465614694
  O        -1.7701949227        7.7192654894       -3.5244830029
  O        -1.9637952825        9.8893082175       -2.9405919708
  C         2.5061802044        8.6538213622       -4.1272919334
  H         2.7131102182        9.0638249498       -5.0476060874
  O         2.0944645506        7.4530227413       -4.0306973969
  O         2.6626549964        9.4110027248       -3.1549962194
  C         1.7410777281        5.3672339267       -8.1968036455
  H         1.4358383610        6.4416008070       -8.3632925476
  O         2.2781518517        5.0763528237       -7.0404385137
  O         1.5314150058        4.4831304793       -9.0173419745
  C         9.4767684137        2.6096143217        3.9000309242
  H         9.6131090334        3.4671477718        4.5843902861
  O         8.5278190682        2.7172497349        3.0490534757
  O        10.1883163427        1.5399934217        4.0328643012
  C         6.6326179187        7.0382184081        3.3282398140
  H         7.5082674956        7.1289998248        4.0070788575
  O         6.4942429182        6.1602352950        2.4465264248
  O         5.7952538745        7.9028576511        3.5810431358
  C         4.7447916760        5.8524446205        6.9353140585
  H         5.7085862008        5.7040540943        7.4370666698
  O         4.3283786008        4.9884649479        6.0813893701
  O         4.1453805624        6.9223008409        7.1369027493
  C         7.5603175243        1.7452851454        7.1877868511
  H         8.1158840311        2.6116602203        7.6593692779
  O         6.7456518553        2.0300977240        6.2243584762
  O         7.8433452420        0.5820221164        7.5892490426
     227
 i =        2, time =        2.000, E =       -30.5103149113
 Cd        -8.6170399217        0.4784717035        3.4767398822
 Cd        -5.8707510229       -0.2574873581        7.1137150999
 Cd        -8.4090388051       -2.1552143573        0.3836322231
 Cd        -6.8897669060       -3.2939488794        3.9621079051