     227
 i =        0, time =        0.000, E =       -24.5333196026
 Cd        -8.6216924880        0.4810107428        3.4775887729
 Cd        -5.8723589632       -0.2566559957        7.1151373767
 Cd        -8.4076147924       -2.1531404527        0.3867588804
 Cd        -6.8957642261       -3.2896665849        3.9600318291
 Cd        -3.6930098048       -3.6992689615        7.3819491709
 Cd        -6.4429261463       -6.2347087238        0.4622469067
 Cd        -4.3123952394       -6.8285875372        3.9039095072
 Cd        -6.1141073353        3.8626235599        2.9066844924
 Cd        -3.6048790416        2.8797284733        6.5917986711
 Cd        -6.7531255596        1.1841266196       -0.3182182747
 Cd        -4.0437606329        0.0729837467        3.0511954168
 Cd        -1.7753257667       -0.3121054857        6.8316599018
 Cd        -6.3661028473       -1.4630135273       -3.4383357626
 Cd        -4.3602814436       -3.1214810613       -0.1759283953
 Cd        -2.2424276819       -3.6242998489        3.6335413818
 Cd         0.1757294635       -3.9625201566        7.0364714760
 Cd        -4.2692200317       -5.9860442556       -3.0005266361
 Cd        -2.2482225396       -6.7972628816        0.6786391664
 Cd         0.0669003827       -7.3030327295        3.8545421700
 Cd        -4.0792754193        7.4105475565        2.4175118797
 Cd        -1.6116442377        6.4880648240        6.2478272306
 Cd        -4.3308002626        4.8127262164       -0.6762739309
 Cd        -1.8326132452        3.6694977750        3.1598212265
 Cd         0.4939817277        3.1637060931        6.7202662426
 Cd        -4.5980154021        1.9988297698       -4.0880170010
 Cd        -2.1651194586        1.0165564496       -0.4536921834
 Cd         0.1376109507       -0.0659106884        3.1336818174
 Cd         2.6419074521       -0.6636939286        6.8958319365
 Cd        -4.1515129292       -0.5348426091       -6.9620217917
 Cd        -2.2012490343       -1.8491984656       -3.4894107829
 Cd         0.0359311218       -2.8494155653       -0.0264680683
 Cd         2.4407298775       -3.8224684908        3.5289587884
 Cd         4.5907434619       -4.2169180472        6.5928471603
 Cd        -2.6321953796       -4.5685798778       -6.0773989300
 Cd        -0.3638438279       -6.1221236347       -3.0620735359
 Cd         1.9882729153       -6.8506852632       -0.0376753302
 Cd         4.3604701588       -7.5063202656        3.0981086138
 Cd        -2.4313710890        8.2839908015       -1.2010761441
 Cd         0.1210964618        6.7915494583        2.0748938605
 Cd         2.2602783261        6.3879934074        5.9824457591
 Cd        -2.2743307721        5.5403016700       -4.1096429978
 Cd         0.1552258413        4.6164378819       -0.9814446932
 Cd         2.6173372932        3.7540356816        2.4616712460
 Cd         4.3934694910        2.5024270436        5.6448470259
 Cd        -2.3839877703        3.0961459608       -7.5397423510
 Cd        -0.1308699873        1.7716472388       -4.3458913396
 Cd         2.1522040622        0.8595996928       -0.9600505658
 Cd         4.3027041934       -0.4425155449        2.5248589789
 Cd         6.4943132815       -0.6514444341        6.0110723312
 Cd         0.4032906214       -0.5920449882       -7.0625722312
 Cd         2.1504065746       -1.8410095193       -3.9631978812
 Cd         4.1282053355       -2.9764966895       -0.5499119195
 Cd         6.9189885741       -3.8001688729        2.8840486736
 Cd         1.0693858855       -4.7693596381       -6.7909688629
 Cd         3.6529341800       -5.7620820022       -3.6150795142
 Cd         5.7341856059       -6.5625995016       -0.3323817960
 Cd         2.4532379782        8.1225833618       -1.1556872380
 Cd         4.4025673150        7.2904811152        1.7928276254
 Cd         2.3800547108        5.2453457502       -4.8107637235
 Cd         4.8184663347        4.7191125514       -1.4277792117
 Cd         6.7589411702        3.8390778732        2.0295448973
 Cd         2.6210634084        2.7844913241       -7.7035228004
 Cd         4.8495943395        1.7843685348       -4.5225056138
 Cd         6.7261500983        1.0662237140       -0.9642295531
 Cd         8.8881450478        0.4141445330        2.4369093904
 Cd         4.3615782352       -0.9213178924       -7.7328888960
 Cd         6.7438649008       -1.9767569930       -4.2031112584
 Cd         8.5272445020       -2.6218905711       -0.2551455218
 Se        -9.0557725106        0.2424574140        0.9180313808
 Se        -6.3745872764       -0.6570220647        4.4225742627
 Se        -3.9358548519       -1.3506397678        8.2925868769
 Se        -6.5830028390       -3.7408669090        1.3890860046
 Se        -4.5802302415       -4.2716541219        4.8585926421
 Se        -4.6110671623       -7.7792240778        1.5343213278
 Se        -6.6407812351        3.9866809498        0.4586064126
 Se        -4.0705866514        2.6241591830        3.9150270775
 Se        -1.6315747320        2.0143859544        7.9219454430
 Se        -6.7106235468        0.9827493806       -3.1628202938
 Se        -4.4077684895       -0.2106461950        0.3970531668
 Se        -2.0534879979       -1.1190641497        4.2604482105
 Se         0.4069246601       -1.5676855049        8.0617057342
 Se        -4.4126107232       -3.1307459794       -2.8028288282
 Se        -2.2371864822       -4.0884616040        0.9473336128
 Se         0.1541797359       -4.8148952714        4.4843326207
 Se        -2.4147106009       -7.4199706225       -2.0529393442
 Se        -0.0662571417       -7.8800811154        1.3078284855
 Se        -4.5519687636        7.5920037884       -0.0122560791
 Se        -1.8482840651        6.3647212661        3.5390459072
 Se         0.4006735392        5.8241498358        7.5878867146
 Se        -4.4655945585        4.5529209660       -3.3484418515
 Se        -2.0798083538        3.7153034916        0.3451575142
 Se         0.4973892782        2.6967113851        3.7286137790
 Se         2.7724753484        1.9958260876        7.6298945277
 Se        -4.6126224962        2.0736182894       -6.9031574659
 Se        -2.2770211290        0.8531533747       -3.1284312065
 Se         0.0138865169       -0.1636477002        0.3858468104
 Se         2.3115473387       -1.3198431962        4.0017354986
 Se         4.8624545925       -1.8855864388        7.7371297607
 Se        -2.0700877949       -1.9675257511       -6.4603372509
 Se        -0.0447057629       -3.1582708631       -2.8090856920
 Se         2.2343306950       -4.2299664240        0.7817840723
 Se         4.8342987615       -4.9516929708        4.0974643468
 Se        -0.7556003326       -6.2829108386       -5.8406699955
 Se         1.9243057511       -7.4784768035       -2.6074198353
 Se         4.2543989663       -8.3809591814        0.7363809319
 Se         0.0386925703        7.3677075300       -0.4939635450
 Se         2.3791568525        6.5289221229        3.1400383851
 Se         0.0465974103        4.4270318221       -3.5936563407
 Se         2.5167269427        3.6273521599       -0.0581806204
 Se         4.7705604635        2.4670139639        3.1233546104
 Se         0.0435933033        1.9323944164       -6.9695738842
 Se         2.2733127965        0.7623703678       -3.6584263160
 Se         4.3816175435       -0.2841549253       -0.0177063702
 Se         6.9670500347       -1.1290204494        3.5565582379
 Se         2.2410869402       -2.2702007814       -6.6798205275
 Se         4.3723294721       -3.1971869108       -3.2130677403
 Se         6.4331938555       -4.1098532443        0.4136420186
 Se         4.8503033307        7.5509093293       -0.7463548497
 Se         4.8776288797        4.5477652435       -4.0091414448
 Se         7.0830986217        3.5950723552       -0.6434567968
 Se         4.7810064642        1.5273410534       -7.5566303287
 Se         6.9188050062        0.6130038217       -3.7081238627
 Se         9.1066871843       -0.0609359671       -0.0919647969
  C         6.9955771113       -6.9586634775       -2.8583426301
  H         7.7780160969       -7.1271873265       -3.6573399650
  O         5.8389952916       -6.4652991204       -3.1445809228
  O         7.2920676004       -7.2683568805       -1.6893132711
  C         3.3939431960       -6.2668607509       -6.9513074648
  H         4.3245440932       -6.8689211647       -7.0591687882
  O         3.0202466073       -5.7860511295       -5.7843136273
  O         2.6220129789       -6.1746538788       -7.9242101403
  C         6.3116555909       -2.9071154185       -7.4921130606
  H         7.0978863851       -3.7212906458       -7.4285512081
  O         6.0096715894       -2.3219711192       -6.3505932827
  O         5.9403243477       -2.4750431756       -8.6116316973
  C         8.9837561036       -3.3697375837       -3.4349055328
  H         9.9249943929       -3.8864043165       -3.1840078659
  O         8.5659407989       -3.4209184445       -4.6048832464
  O         8.2714489672       -2.6971151254       -2.5207012617
  C         9.7902109758       -4.6282247391        2.1768529346
  H        10.6284324694       -5.3337138149        2.3552924638
  O         9.7484501532       -4.1824896055        0.9942458601
  O         9.0219926648       -4.5705851174        3.1873629795
  C        -2.8252708508       -8.8894178348        5.3653894160
  H        -2.3915771747       -9.8892286280        5.4446685031
  O        -1.9808601030       -7.9304545651        5.0436955975
  O        -4.0908415257       -8.7280019527        5.4030844137
  C         3.0047406823       -8.6887063298        5.2919739424
  H         2.6853413808       -9.0312323512        6.2714246943
  O         1.9985977812       -8.3553887881        4.5599054594
  O         4.2197147413       -8.6069092298        4.9235206312
  C         2.8732291572       -5.7090624943        8.2322507888
  H         2.4095730423       -6.3582442170        8.9295273658
  O         2.2236878889       -4.8031284854        7.6183804854
  O         4.1525405945       -5.8988692439        8.1468427445
  C        -2.5324052264       -5.9090323801        8.5168983878
  H        -2.0058427467       -6.7599986745        9.0204193621
  O        -1.9189018681       -5.2527647032        7.5983339134
  O        -3.6521974131       -5.4981014961        8.8936623702
  C        -6.8661340661        2.3082426882        7.3884767521
  H        -7.2433530482        3.2983326111        7.3747512577
  O        -5.6189307919        2.1553364867        7.5292857639
  O        -7.6694328727        1.3672322100        7.2032576312
  C        -4.1128935570        6.2776012356        7.2258109093
  H        -5.2184092536        6.2949225170        7.4003980339
  O        -3.5215502414        5.2331222329        6.7794929280
  O        -3.5956064510        7.4679880815        7.3184340370
  C        -6.2584500423        7.1467273309        4.0778865765
  H        -7.2018864753        7.1620259062        4.6862261037
  O        -5.8042352338        6.0508881806        3.6277903665
  O        -5.6141473350        8.2227071687        3.8530055117
  C        -9.2670155991        2.9624473135        4.4549609073
  H        -9.7760873251        3.8307467380        4.7753730710
  O        -8.0580447847        3.0137717908        4.1153681461
  O       -10.0869615960        1.9755230626        4.3964141791
  C        -9.5997958208       -3.5202239981        4.2555074891
  H       -10.6284324694       -3.6062117458        4.7363993397
  O        -9.3836198173       -2.7271085544        3.2939504316
  O        -8.6749593009       -4.3055307223        4.7674147240
  C        -5.4063829718       -6.0836320759       -6.1576393485
  H        -6.0390997038       -6.5934387315       -6.8768176703
  O        -5.3157147411       -6.5042627408       -4.9638375967
  O        -4.7997118332       -5.0931497246       -6.6842330004
  C        -7.4812021438       -7.2683192216       -1.8337008205
  H        -7.8430239833       -7.7214409635       -2.7403108931
  O        -6.3847231004       -6.5596142310       -1.8855223803
  O        -8.0870004405       -7.4369608581       -0.7449951352
  C        -9.2637717352       -3.4248031045       -2.1287629167
  H        -9.5435102925       -4.0726156799       -2.9624854104
  O        -8.1685743898       -2.7562864935       -2.2769679175
  O        -9.8293124780       -3.4993302663       -1.0042472880
  C        -6.7198117275       -1.5155721631       -7.0057360974
  H        -7.7266400310       -1.9701098143       -7.1795729881
  O        -6.3208037730       -1.2812141421       -5.7891801227
  O        -6.0546670581       -1.2647410752       -8.0219575549
  C        -1.9610306020        5.6962737072       -7.4797868569
  H        -1.8068881661        6.7616764611       -7.4798700689
  O        -2.4613788677        5.1953402046       -6.4147373301
  O        -1.7592038190        5.0404242691       -8.5376948407
  C        -1.7153677193        9.0065729983       -3.7807068554
  H        -1.3518565997        9.2891789052       -4.8285272378
  O        -1.7735635219        7.7204009534       -3.5311974415
  O        -1.9589811591        9.8892286280       -2.9296575010
  C         2.5176986766        8.6527359013       -4.1276241396
  H         2.7356319561        9.0838176512       -5.0545617483
  O         2.0941304229        7.4607563111       -4.0382054964
  O         2.6632020791        9.4136986823       -3.1567247192
  C         1.7405814703        5.3615037054       -8.2026998584
  H         1.4592813282        6.4433815072       -8.3446733349
  O         2.2712544771        5.0744229803       -7.0359036782
  O         1.5374971892        4.4786315137       -9.0204193621
  C         9.4791869119        2.6134878200        3.9079418032
  H         9.6264681644        3.4611325178        4.5867541287
  O         8.5294682966        2.7206869475        3.0468687327
  O        10.1884170796        1.5361363159        4.0354546634
  C         6.6320899766        7.0427804887        3.3240585285
  H         7.5183451153        7.1103565644        4.0025867163
  O         6.4921259472        6.1579139584        2.4473334656
  O         5.8014508194        7.8970951585        3.5804466065
  C         4.7468288793        5.8510846562        6.9391041765
  H         5.6837062732        5.7110173508        7.4566454645
  O         4.3315486404        4.9881730889        6.0840680113
  O         4.1390624477        6.9214380767        7.1338855679
  C         7.5642974957        1.7429307679        7.1823006621
  H         8.1116275708        2.6102062210        7.6466333920
  O         6.7423080014        2.0330978891        6.2208765696
  O         7.8434776238        0.5800715711        7.5931108165
     227
 i =        1, time =        1.000, E =       -24.5438778456
 Cd        -8.6193517717        0.4796699100        3.4771580737
 Cd        -5.8715172988       -0.2571742443        7.1144150898
 Cd        -8.4082446265       -2.1541309806        0.3852349407
 Cd        -6.8927481141       -3.2918182752        3.9610903973
 Cd        -3.6901777652       -3.7003944466        7.3824212841
 Cd        -6.4419846958       -6.2357831362        0.4642514470
 Cd        -4.3123535096       -6.8296574887        3.9052120458
 Cd        -6.1163965191        3.8609415111        2.9055513956
 Cd        -3.6066271218        2.8812347858        6.5904489624
 Cd        -6.7534509596        1.1872474618       -0.3192312669
 Cd        -4.0444397304        0.0755208619        3.0502020911
 Cd        -1.7741788732       -0.3125618156        6.8336341826
 Cd        -6.3661170378       -1.4623992907       -3.4401870327
 Cd        -4.3613471104       -3.1217921922       -0.1745521443
 Cd        -2.2426215616       -3.6215540849        3.6336250462
 Cd         0.1787313488       -3.9615914855        7.0369585395
 Cd        -4.2693872608       -5.9882785693       -2.9988726214
 Cd        -2.2486836010       -6.7966660505        0.6791576527
 Cd         0.0677987933       -7.3029992432        3.8542310237
 Cd        -4.0803491120        7.4119345521        2.4182535295
 Cd        -1.6107959413        6.4879105805        6.2510081877
 Cd        -4.3325696297        4.8128110761       -0.6769713393
 Cd        -1.8304141519        3.6695970876        3.1589510783
 Cd         0.4898071498        3.1633229054        6.7205876701
 Cd        -4.5996887936        2.0001316357       -4.0890024575
 Cd        -2.1629105444        1.0181223661       -0.4517688608
 Cd         0.1384394983       -0.0681818552        3.1344373555
 Cd         2.6424379523       -0.6635636537        6.8959633721
 Cd        -4.1541221698       -0.5351572346       -6.9611375092
 Cd        -2.2031904551       -1.8491126378       -3.4900241650
 Cd         0.0358084616       -2.8475162355       -0.0251013820
 Cd         2.4397065527       -3.8215460658        3.5304765385
 Cd         4.5938262023       -4.2152103276        6.5947091240
 Cd        -2.6317008555       -4.5700072234       -6.0785660029
 Cd        -0.3609702192       -6.1211231291       -3.0631448220
 Cd         1.9863930958       -6.8523889585       -0.0374720898
 Cd         4.3578537141       -7.5051006290        3.0974266338
 Cd        -2.4320698362        8.2867261644       -1.2003852957
 Cd         0.1211454274        6.7911492255        2.0748189223
 Cd         2.2581336944        6.3879287689        5.9827088530
 Cd        -2.2740556846        5.5405484431       -4.1121407344
 Cd         0.1544559022        4.6148805013       -0.9823741987
 Cd         2.6165406662        3.7533350942        2.4610050059
 Cd         4.3939469684        2.5015521474        5.6447026583
 Cd        -2.3865030614        3.0937660945       -7.5398835554
 Cd        -0.1312657270        1.7709500498       -4.3474347214
 Cd         2.1532088139        0.8600229598       -0.9632172585
 Cd         4.3034828149       -0.4402479703        2.5247869147
 Cd         6.4920548541       -0.6517678856        6.0104963388
 Cd         0.4042774015       -0.5927812352       -7.0621285259
 Cd         2.1513469505       -1.8411034670       -3.9633498011
 Cd         4.1300069030       -2.9780344322       -0.5482423201
 Cd         6.9198367009       -3.7969889648        2.8855045334
 Cd         1.0695959459       -4.7692574786       -6.7906565899
 Cd         3.6506538361       -5.7625422671       -3.6177476232
 Cd         5.7330077152       -6.5640582276       -0.3328103673
 Cd         2.4551484250        8.1222985954       -1.1566632675
 Cd         4.4053841222        7.2897866847        1.7948506070
 Cd         2.3804131138        5.2452465794       -4.8087453244
 Cd         4.8190259761        4.7184618285       -1.4284473721
 Cd         6.7582562293        3.8401509227        2.0311513781
 Cd         2.6218199745        2.7829361693       -7.7033840897
 Cd         4.8494057347        1.7846681949       -4.5231183065
 Cd         6.7277650280        1.0650441212       -0.9631342686
 Cd         8.8867496385        0.4156004368        2.4347878282
 Cd         4.3618535989       -0.9226086995       -7.7309048216
 Cd         6.7428065374       -1.9756303451       -4.2012793357
 Cd         8.5291351166       -2.6208125622       -0.2528233830
 Se        -9.0546693598        0.2428025553        0.9183491252
 Se        -6.3727310032       -0.6565219773        4.4182889292
 Se        -3.9345653675       -1.3489874019        8.2963970059
 Se        -6.5830962888       -3.7425261278        1.3880769137
 Se        -4.5790383951       -4.2748285175        4.8596990289
 Se        -4.6122158930       -7.7764463217        1.5328768080
 Se        -6.6421568137        3.9855241624        0.4577597943
 Se        -4.0718969280        2.6208432948        3.9142501564
 Se        -1.6333489805        2.0117145741        7.9249514340
 Se        -6.7115450951        0.9828240252       -3.1654492716
 Se        -4.4070246422       -0.2111747679        0.3949231572
 Se        -2.0531291295       -1.1153539212        4.2593424435
 Se         0.4060020436       -1.5661924023        8.0649578116
 Se        -4.4160155874       -3.1299359148       -2.8046248492
 Se        -2.2374569863       -4.0915616655        0.9472001474
 Se         0.1530715229       -4.8127410352        4.4857660135
 Se        -2.4165771075       -7.4204648577       -2.0539699695
 Se        -0.0669871285       -7.8789979496        1.3095625918
 Se        -4.5519746178        7.5948113467       -0.0125383679
 Se        -1.8466671456        6.3632835447        3.5400049036
 Se         0.4036870489        5.8261753446        7.5857021064
 Se        -4.4659121407        4.5539272625       -3.3489308191
 Se        -2.0809528451        3.7152448322        0.3431589373
 Se         0.4981833842        2.6970273350        3.7286351367
 Se         2.7717740908        1.9958413121        7.6260608621
 Se        -4.6130398994        2.0747107665       -6.9048874124
 Se        -2.2788429118        0.8534899918       -3.1260956593
 Se         0.0145423491       -0.1632259301        0.3853903761
 Se         2.3129803683       -1.3189404817        3.9989449183
 Se         4.8631261306       -1.8843202312        7.7352646267
 Se        -2.0702367434       -1.9663977603       -6.4603458878
 Se        -0.0447555651       -3.1598710141       -2.8087796748
 Se         2.2323236764       -4.2314054354        0.7809186998
 Se         4.8362173220       -4.9530342198        4.0967190046
 Se        -0.7551546541       -6.2846603011       -5.8413874823
 Se         1.9249964597       -7.4788996744       -2.6075698662
 Se         4.2593828109       -8.3790396594        0.7364646442
 Se         0.0356792184        7.3685671295       -0.4912433622
 Se         2.3808568970        6.5252167891        3.1423884118
 Se         0.0437020311        4.4287797666       -3.5939584969
 Se         2.5163393114        3.6274513292       -0.0567767810
 Se         4.7726342797        2.4662039870        3.1253456687
 Se         0.0455218460        1.9298357721       -6.9704250772
 Se         2.2757585984        0.7647906174       -3.6570248705
 Se         4.3765905353       -0.2853807754       -0.0177420088
 Se         6.9676669399       -1.1294525239        3.5582773810
 Se         2.2368850346       -2.2680774843       -6.6837439109
 Se         4.3736401097       -3.1974659709       -3.2155961051
 Se         6.4331018372       -4.1116646068        0.4130500355
 Se         4.8513847819        7.5523948766       -0.7458283227
 Se         4.8773900477        4.5489356874       -4.0121532665
 Se         7.0854745368        3.5933963298       -0.6428469432
 Se         4.7815420096        1.5263616411       -7.5555370894
 Se         6.9184171682        0.6112211508       -3.7073394897
 Se         9.1067863119       -0.0627449446       -0.0922396121
  C         6.9966632563       -6.9497575479       -2.8612733738
  H         7.7649322095       -7.1224747738       -3.6684216540
  O         5.8437941718       -6.4671659095       -3.1400183777
  O         7.2882130302       -7.2739522369       -1.6933565076
  C         3.3951025187       -6.2672610498       -6.9491363646
  H         4.3444066225       -6.8936096686       -7.0753272229
  O         3.0187615566       -5.7907403923       -5.7817687742
  O         2.6175590337       -6.1687221549       -7.9238572791
  C         6.3106263491       -2.9078783294       -7.4909629264
  H         7.1299137504       -3.7048862282       -7.4466889051
  O         6.0085192454       -2.3180720665       -6.3472928399
  O         5.9391680812       -2.4740796106       -8.6123453634
  C         8.9773820978       -3.3708974034       -3.4296163656
  H         9.9250180562       -3.8774829974       -3.1826003730
  O         8.5680553164       -3.4147235251       -4.6045329494
  O         8.2715771599       -2.6966765966       -2.5199249965
  C         9.7980120116       -4.6251763238        2.1809732456
  H        10.6408655401       -5.3318691344        2.3887999993
  O         9.7469411603       -4.1803090311        0.9925225633
  O         9.0282519836       -4.5679799976        3.1869916585
  C        -2.8217061547       -8.8883727018        5.3598601621
  H        -2.4154187803       -9.9024293192        5.4343946394
  O        -1.9846955264       -7.9305301305        5.0422107140
  O        -4.0904448328       -8.7272179274        5.4042841498
  C         2.9969045775       -8.6915535162        5.2874373208
  H         2.6967725338       -9.0398269484        6.2934215078
  O         1.9992167741       -8.3576828849        4.5593278876
  O         4.2233737164       -8.6002950060        4.9150633288
  C         2.8792695178       -5.7053315036        8.2323744640
  H         2.3955873073       -6.3773024893        8.9303283437
  O         2.2188499181       -4.8087224380        7.6161543737
  O         4.1498470801       -5.9032824832        8.1533583907
  C        -2.5346971500       -5.9173557249        8.5219272667
  H        -2.0052498086       -6.7390725628        9.0096019785
  O        -1.9214622334       -5.2580910942        7.5982760894
  O        -3.6522335699       -5.5082043507        8.8925485354
  C        -6.8630544139        2.3027166503        7.3891162190
  H        -7.2086193538        3.3071349018        7.3885257928
  O        -5.6211381308        2.1590140012        7.5335336266
  O        -7.6693459000        1.3701242687        7.1999311584
  C        -4.1170179491        6.2827635659        7.2281288504
  H        -5.2418933127        6.2896177269        7.3832000201
  O        -3.5264861393        5.2289528243        6.7737164455
  O        -3.5908991215        7.4672189258        7.3179054667
  C        -6.2567122053        7.1461877716        4.0781158496
  H        -7.2111390447        7.1649409639        4.6689854642
  O        -5.8089255024        6.0477402807        3.6277688428
  O        -5.6124761322        8.2205362805        3.8485158136
  C        -9.2741507083        2.9617177229        4.4604984557
  H        -9.7855372140        3.8838940690        4.7760086716
  O        -8.0586849053        3.0118592973        4.1191942771
  O       -10.0808615226        1.9790548798        4.3920971092
  C        -9.6032321872       -3.5281933420        4.2551387617
  H       -10.5971720209       -3.6001750875        4.7566807035
  O        -9.3830919039       -2.7227507687        3.2942865612
  O        -8.6782811924       -4.3014832488        4.7628410087
  C        -5.4081392121       -6.0791879171       -6.1561454119
  H        -6.0546960796       -6.5859836395       -6.8890942905
  O        -5.3108432907       -6.5039312768       -4.9649703874
  O        -4.7981480236       -5.0926560629       -6.6851803315
  C        -7.4874640216       -7.2704994115       -1.8348066456
  H        -7.8388434959       -7.7173330376       -2.7530342297
  O        -6.3886217332       -6.5548548796       -1.8841402935
  O        -8.0714881780       -7.4407409405       -0.7456907795
  C        -9.2562107618       -3.4270235773       -2.1219542261
  H        -9.5270787848       -4.0663584857       -2.9594189931
  O        -8.1697064851       -2.7553241173       -2.2726429931
  O        -9.8240423553       -3.4938533929       -1.0090975918
  C        -6.7206828484       -1.5101882638       -7.0045522006
  H        -7.7450574417       -1.9674181007       -7.1698505571
  O        -6.3196369698       -1.2781643053       -5.7988737213
  O        -6.0630440154       -1.2634250818       -8.0153527106
  C        -1.9628590291        5.6954790041       -7.4852714798
  H        -1.7770888886        6.7764005651       -7.4923242406
  O        -2.4610854854        5.1865661805       -6.4086098789
  O        -1.7564796047        5.0401268145       -8.5281549831
  C        -1.7168454811        9.0074561890       -3.7839191488
  H        -1.3493405476        9.2660238074       -4.8465614694
  O        -1.7701711119        7.7192867354       -3.5245349101
  O        -1.9637878309        9.8893766261       -2.9406508385
  C         2.5061986654        8.6538417768       -4.1272915249
  H         2.7131102182        9.0638249498       -5.0476060874
  O         2.0944690206        7.4530606427       -4.0307206669
  O         2.6626814692        9.4110401954       -3.1550496721
  C         1.7411026811        5.3672366784       -8.1968232098
  H         1.4358383610        6.4416008070       -8.3632925476
  O         2.2781622470        5.0764166238       -7.0404384404
  O         1.5313766217        4.4831856809       -9.0174042502
  C         9.4768042665        2.6096184879        3.9000210962
  H         9.6131090334        3.4671477718        4.5843902861
  O         8.5278466860        2.7172841209        3.0490687075
  O        10.1883648747        1.5400223374        4.0329082859
  C         6.6326312073        7.0382455905        3.3282282653
  H         7.5082674956        7.1289998248        4.0070788575
  O         6.4943106208        6.1602671009        2.4465303247
  O         5.7953044896        7.9028956219        3.5810894818
  C         4.7447839975        5.8524566824        6.9353406199
  H         5.7085862008        5.7040540943        7.4370666698
  O         4.3284382574        4.9884921175        6.0814309417
  O         4.1454090778        6.9223173052        7.1369469326
  C         7.5603238891        1.7452838280        7.1878171640
  H         8.1158840311        2.6116602203        7.6593692779
  O         6.7457073513        2.0301466525        6.2243886593
  O         7.8433848831        0.5820510165        7.5893198176
     227
 i =        2, time =        2.000, E =       -24.5626946312
 Cd        -8.6170341664        0.4784280404        3.4767197801
 Cd        -5.8706908613       -0.2575719707        7.1137243543
 Cd        -8.4089819892       -2.1551606847        0.3836740739
 Cd        -6.8897620812       -3.2939743659        3.9621181161