     227
 i =        0, time =        0.000, E =        12.9436559932
 Cd        -8.6216924880        0.4810107428        3.4775887729
 Cd        -5.8723589632       -0.2566559957        7.1151373767
 Cd        -8.4076147924       -2.1531404527        0.3867588804
 Cd        -6.8957642261       -3.2896665849        3.9600318291
 Cd        -3.6930098048       -3.6992689615        7.3819491709
 Cd        -6.4429261463       -6.2347087238        0.4622469067
 Cd        -4.3123952394       -6.8285875372        3.9039095072
 Cd        -6.1141073353        3.8626235599        2.9066844924
 Cd        -3.6048790416        2.8797284733        6.5917986711
 Cd        -6.7531255596        1.1841266196       -0.3182182747
 Cd        -4.0437606329        0.0729837467        3.0511954168
 Cd        -1.7753257667       -0.3121054857        6.8316599018
 Cd        -6.3661028473       -1.4630135273       -3.4383357626
 Cd        -4.3602814436       -3.1214810613       -0.1759283953
 Cd        -2.2424276819       -3.6242998489        3.6335413818
 Cd         0.1757294635       -3.9625201566        7.0364714760
 Cd        -4.2692200317       -5.9860442556       -3.0005266361
 Cd        -2.2482225396       -6.7972628816        0.6786391664
 Cd         0.0669003827       -7.3030327295        3.8545421700
 Cd        -4.0792754193        7.4105475565        2.4175118797
 Cd        -1.6116442377        6.4880648240        6.2478272306
 Cd        -4.3308002626        4.8127262164       -0.6762739309
 Cd        -1.8326132452        3.6694977750        3.1598212265
 Cd         0.4939817277        3.1637060931        6.7202662426
 Cd        -4.5980154021        1.9988297698       -4.0880170010
 Cd        -2.1651194586        1.0165564496       -0.4536921834
 Cd         0.1376109507       -0.0659106884        3.1336818174
 Cd         2.6419074521       -0.6636939286        6.8958319365
 Cd        -4.1515129292       -0.5348426091       -6.9620217917
 Cd        -2.2012490343       -1.8491984656       -3.4894107829
 Cd         0.0359311218       -2.8494155653       -0.0264680683
 Cd         2.4407298775       -3.8224684908        3.5289587884
 Cd         4.5907434619       -4.2169180472        6.5928471603
 Cd        -2.6321953796       -4.5685798778       -6.0773989300
 Cd        -0.3638438279       -6.1221236347       -3.0620735359
 Cd         1.9882729153       -6.8506852632       -0.0376753302
 Cd         4.3604701588       -7.5063202656        3.0981086138
 Cd        -2.4313710890        8.2839908015       -1.2010761441
 Cd         0.1210964618        6.7915494583        2.0748938605
 Cd         2.2602783261        6.3879934074        5.9824457591
 Cd        -2.2743307721        5.5403016700       -4.1096429978
 Cd         0.1552258413        4.6164378819       -0.9814446932
 Cd         2.6173372932        3.7540356816        2.4616712460
 Cd         4.3934694910        2.5024270436        5.6448470259
 Cd        -2.3839877703        3.0961459608       -7.5397423510
 Cd        -0.1308699873        1.7716472388       -4.3458913396
 Cd         2.1522040622        0.8595996928       -0.9600505658
 Cd         4.3027041934       -0.4425155449        2.5248589789
 Cd         6.4943132815       -0.6514444341        6.0110723312
 Cd         0.4032906214       -0.5920449882       -7.0625722312
 Cd         2.1504065746       -1.8410095193       -3.9631978812
 Cd         4.1282053355       -2.9764966895       -0.5499119195
 Cd         6.9189885741       -3.8001688729        2.8840486736
 Cd         1.0693858855       -4.7693596381       -6.7909688629
 Cd         3.6529341800       -5.7620820022       -3.6150795142
 Cd         5.7341856059       -6.5625995016       -0.3323817960
 Cd         2.4532379782        8.1225833618       -1.1556872380
 Cd         4.4025673150        7.2904811152        1.7928276254
 Cd         2.3800547108        5.2453457502       -4.8107637235
 Cd         4.8184663347        4.7191125514       -1.4277792117
 Cd         6.7589411702        3.8390778732        2.0295448973
 Cd         2.6210634084        2.7844913241       -7.7035228004
 Cd         4.8495943395        1.7843685348       -4.5225056138
 Cd         6.7261500983        1.0662237140       -0.9642295531
 Cd         8.8881450478        0.4141445330        2.4369093904
 Cd         4.3615782352       -0.9213178924       -7.7328888960
 Cd         6.7438649008       -1.9767569930       -4.2031112584
 Cd         8.5272445020       -2.6218905711       -0.2551455218
 Se        -9.0557725106        0.2424574140        0.9180313808
 Se        -6.3745872764       -0.6570220647        4.4225742627
 Se        -3.9358548519       -1.3506397678        8.2925868769
 Se        -6.5830028390       -3.7408669090        1.3890860046
 Se        -4.5802302415       -4.2716541219        4.8585926421
 Se        -4.6110671623       -7.7792240778        1.5343213278
 Se        -6.6407812351        3.9866809498        0.4586064126
 Se        -4.0705866514        2.6241591830        3.9150270775
 Se        -1.6315747320        2.0143859544        7.9219454430
 Se        -6.7106235468        0.9827493806       -3.1628202938
 Se        -4.4077684895       -0.2106461950        0.3970531668
 Se        -2.0534879979       -1.1190641497        4.2604482105
 Se         0.4069246601       -1.5676855049        8.0617057342
 Se        -4.4126107232       -3.1307459794       -2.8028288282
 Se        -2.2371864822       -4.0884616040        0.9473336128
 Se         0.1541797359       -4.8148952714        4.4843326207
 Se        -2.4147106009       -7.4199706225       -2.0529393442
 Se        -0.0662571417       -7.8800811154        1.3078284855
 Se        -4.5519687636        7.5920037884       -0.0122560791
 Se        -1.8482840651        6.3647212661        3.5390459072
 Se         0.4006735392        5.8241498358        7.5878867146
 Se        -4.4655945585        4.5529209660       -3.3484418515
 Se        -2.0798083538        3.7153034916        0.3451575142
 Se         0.4973892782        2.6967113851        3.7286137790
 Se         2.7724753484        1.9958260876        7.6298945277
 Se        -4.6126224962        2.0736182894       -6.9031574659
 Se        -2.2770211290        0.8531533747       -3.1284312065
 Se         0.0138865169       -0.1636477002        0.3858468104
 Se         2.3115473387       -1.3198431962        4.0017354986
 Se         4.8624545925       -1.8855864388        7.7371297607
 Se        -2.0700877949       -1.9675257511       -6.4603372509
 Se        -0.0447057629       -3.1582708631       -2.8090856920
 Se         2.2343306950       -4.2299664240        0.7817840723
 Se         4.8342987615       -4.9516929708        4.0974643468
 Se        -0.7556003326       -6.2829108386       -5.8406699955
 Se         1.9243057511       -7.4784768035       -2.6074198353
 Se         4.2543989663       -8.3809591814        0.7363809319
 Se         0.0386925703        7.3677075300       -0.4939635450
 Se         2.3791568525        6.5289221229        3.1400383851
 Se         0.0465974103        4.4270318221       -3.5936563407
 Se         2.5167269427        3.6273521599       -0.0581806204
 Se         4.7705604635        2.4670139639        3.1233546104
 Se         0.0435933033        1.9323944164       -6.9695738842
 Se         2.2733127965        0.7623703678       -3.6584263160
 Se         4.3816175435       -0.2841549253       -0.0177063702
 Se         6.9670500347       -1.1290204494        3.5565582379
 Se         2.2410869402       -2.2702007814       -6.6798205275
 Se         4.3723294721       -3.1971869108       -3.2130677403
 Se         6.4331938555       -4.1098532443        0.4136420186
 Se         4.8503033307        7.5509093293       -0.7463548497
 Se         4.8776288797        4.5477652435       -4.0091414448
 Se         7.0830986217        3.5950723552       -0.6434567968
 Se         4.7810064642        1.5273410534       -7.5566303287
 Se         6.9188050062        0.6130038217       -3.7081238627
 Se         9.1066871843       -0.0609359671       -0.0919647969
  C         6.9955771113       -6.9586634775       -2.8583426301
  H         7.7780160969       -7.1271873265       -3.6573399650
  O         5.8389952916       -6.4652991204       -3.1445809228
  O         7.2920676004       -7.2683568805       -1.6893132711
  C         3.3939431960       -6.2668607509       -6.9513074648
  H         4.3245440932       -6.8689211647       -7.0591687882
  O         3.0202466073       -5.7860511295       -5.7843136273
  O         2.6220129789       -6.1746538788       -7.9242101403
  C         6.3116555909       -2.9071154185       -7.4921130606
  H         7.0978863851       -3.7212906458       -7.4285512081
  O         6.0096715894       -2.3219711192       -6.3505932827
  O         5.9403243477       -2.4750431756       -8.6116316973
  C         8.9837561036       -3.3697375837       -3.4349055328
  H         9.9249943929       -3.8864043165       -3.1840078659
  O         8.5659407989       -3.4209184445       -4.6048832464
  O         8.2714489672       -2.6971151254       -2.5207012617
  C         9.7902109758       -4.6282247391        2.1768529346
  H        10.6284324694       -5.3337138149        2.3552924638
  O         9.7484501532       -4.1824896055        0.9942458601
  O         9.0219926648       -4.5705851174        3.1873629795
  C        -2.8252708508       -8.8894178348        5.3653894160
  H        -2.3915771747       -9.8892286280        5.4446685031
  O        -1.9808601030       -7.9304545651        5.0436955975
  O        -4.0908415257       -8.7280019527        5.4030844137
  C         3.0047406823       -8.6887063298        5.2919739424
  H         2.6853413808       -9.0312323512        6.2714246943
  O         1.9985977812       -8.3553887881        4.5599054594
  O         4.2197147413       -8.6069092298        4.9235206312
  C         2.8732291572       -5.7090624943        8.2322507888
  H         2.4095730423       -6.3582442170        8.9295273658
  O         2.2236878889       -4.8031284854        7.6183804854
  O         4.1525405945       -5.8988692439        8.1468427445
  C        -2.5324052264       -5.9090323801        8.5168983878
  H        -2.0058427467       -6.7599986745        9.0204193621
  O        -1.9189018681       -5.2527647032        7.5983339134
  O        -3.6521974131       -5.4981014961        8.8936623702
  C        -6.8661340661        2.3082426882        7.3884767521
  H        -7.2433530482        3.2983326111        7.3747512577
  O        -5.6189307919        2.1553364867        7.5292857639
  O        -7.6694328727        1.3672322100        7.2032576312
  C        -4.1128935570        6.2776012356        7.2258109093
  H        -5.2184092536        6.2949225170        7.4003980339
  O        -3.5215502414        5.2331222329        6.7794929280
  O        -3.5956064510        7.4679880815        7.3184340370
  C        -6.2584500423        7.1467273309        4.0778865765
  H        -7.2018864753        7.1620259062        4.6862261037
  O        -5.8042352338        6.0508881806        3.6277903665
  O        -5.6141473350        8.2227071687        3.8530055117
  C        -9.2670155991        2.9624473135        4.4549609073
  H        -9.7760873251        3.8307467380        4.7753730710
  O        -8.0580447847        3.0137717908        4.1153681461
  O       -10.0869615960        1.9755230626        4.3964141791
  C        -9.5997958208       -3.5202239981        4.2555074891
  H       -10.6284324694       -3.6062117458        4.7363993397
  O        -9.3836198173       -2.7271085544        3.2939504316
  O        -8.6749593009       -4.3055307223        4.7674147240
  C        -5.4063829718       -6.0836320759       -6.1576393485
  H        -6.0390997038       -6.5934387315       -6.8768176703
  O        -5.3157147411       -6.5042627408       -4.9638375967
  O        -4.7997118332       -5.0931497246       -6.6842330004
  C        -7.4812021438       -7.2683192216       -1.8337008205
  H        -7.8430239833       -7.7214409635       -2.7403108931
  O        -6.3847231004       -6.5596142310       -1.8855223803
  O        -8.0870004405       -7.4369608581       -0.7449951352
  C        -9.2637717352       -3.4248031045       -2.1287629167
  H        -9.5435102925       -4.0726156799       -2.9624854104
  O        -8.1685743898       -2.7562864935       -2.2769679175
  O        -9.8293124780       -3.4993302663       -1.0042472880
  C        -6.7198117275       -1.5155721631       -7.0057360974
  H        -7.7266400310       -1.9701098143       -7.1795729881
  O        -6.3208037730       -1.2812141421       -5.7891801227
  O        -6.0546670581       -1.2647410752       -8.0219575549
  C        -1.9610306020        5.6962737072       -7.4797868569
  H        -1.8068881661        6.7616764611       -7.4798700689
  O        -2.4613788677        5.1953402046       -6.4147373301
  O        -1.7592038190        5.0404242691       -8.5376948407
  C        -1.7153677193        9.0065729983       -3.7807068554
  H        -1.3518565997        9.2891789052       -4.8285272378
  O        -1.7735635219        7.7204009534       -3.5311974415
  O        -1.9589811591        9.8892286280       -2.9296575010
  C         2.5176986766        8.6527359013       -4.1276241396
  H         2.7356319561        9.0838176512       -5.0545617483
  O         2.0941304229        7.4607563111       -4.0382054964
  O         2.6632020791        9.4136986823       -3.1567247192
  C         1.7405814703        5.3615037054       -8.2026998584
  H         1.4592813282        6.4433815072       -8.3446733349
  O         2.2712544771        5.0744229803       -7.0359036782
  O         1.5374971892        4.4786315137       -9.0204193621
  C         9.4791869119        2.6134878200        3.9079418032
  H         9.6264681644        3.4611325178        4.5867541287
  O         8.5294682966        2.7206869475        3.0468687327
  O        10.1884170796        1.5361363159        4.0354546634
  C         6.6320899766        7.0427804887        3.3240585285
  H         7.5183451153        7.1103565644        4.0025867163
  O         6.4921259472        6.1579139584        2.4473334656
  O         5.8014508194        7.8970951585        3.5804466065
  C         4.7468288793        5.8510846562        6.9391041765
  H         5.6837062732        5.7110173508        7.4566454645
  O         4.3315486404        4.9881730889        6.0840680113
  O         4.1390624477        6.9214380767        7.1338855679
  C         7.5642974957        1.7429307679        7.1823006621
  H         8.1116275708        2.6102062210        7.6466333920
  O         6.7423080014        2.0330978891        6.2208765696
  O         7.8434776238        0.5800715711        7.5931108165
     227
 i =        1, time =        1.000, E =        12.6813310660
 Cd        -8.6192350449        0.4794292848        3.4775458093
 Cd        -5.8723939350       -0.2569615448        7.1140517536
 Cd        -8.4082948409       -2.1546399882        0.3848832244
 Cd        -6.8924076556       -3.2913585092        3.9611611980
 Cd        -3.6902514522       -3.7008855255        7.3819832507
 Cd        -6.4422356405       -6.2356283806        0.4643641223
 Cd        -4.3122360556       -6.8294007984        3.9058878316
 Cd        -6.1167006842        3.8608781859        2.9063817806
 Cd        -3.6071630180        2.8814498502        6.5899436956
 Cd        -6.7534031266        1.1873643769       -0.3192713429
 Cd        -4.0447485077        0.0755112702        3.0500105793
 Cd        -1.7741927649       -0.3131322028        6.8333540032
 Cd        -6.3662989210       -1.4636171876       -3.4401714887
 Cd        -4.3618840890       -3.1214716633       -0.1743927318
 Cd        -2.2425282370       -3.6222047919        3.6335371551
 Cd         0.1781338294       -3.9618513700        7.0369568362
 Cd        -4.2698260799       -5.9874799591       -2.9988861452
 Cd        -2.2494749780       -6.7962395359        0.6788697571
 Cd         0.0674926406       -7.3035507663        3.8544895863
 Cd        -4.0796758390        7.4118002534        2.4191130544
 Cd        -1.6113667038        6.4885440233        6.2504300458
 Cd        -4.3325042306        4.8130340916       -0.6768720049
 Cd        -1.8303959046        3.6698978543        3.1586483976
 Cd         0.4898333613        3.1634860327        6.7201461163
 Cd        -4.5988350095        2.0002224025       -4.0895764217
 Cd        -2.1631461774        1.0185339310       -0.4517003950
 Cd         0.1383537213       -0.0678299499        3.1343170982
 Cd         2.6424135233       -0.6634101789        6.8954854626
 Cd        -4.1541678006       -0.5350159926       -6.9611061859
 Cd        -2.2032984163       -1.8487768330       -3.4903830624
 Cd         0.0357373416       -2.8475533699       -0.0251367321
 Cd         2.4398885414       -3.8222556082        3.5302559687
 Cd         4.5938474111       -4.2153340238        6.5947510215
 Cd        -2.6321397481       -4.5696168970       -6.0784180207
 Cd        -0.3607772552       -6.1205229114       -3.0632461887
 Cd         1.9866906179       -6.8521952615       -0.0372896903
 Cd         4.3579972717       -7.5039373018        3.0970263000
 Cd        -2.4314690656        8.2870965987       -1.2006917874
 Cd         0.1211362078        6.7914373605        2.0739236926
 Cd         2.2583225612        6.3881746229        5.9815867763
 Cd        -2.2736246211        5.5409566561       -4.1123705679
 Cd         0.1544191053        4.6149283019       -0.9819592792
 Cd         2.6162785401        3.7539140731        2.4618478956
 Cd         4.3940748518        2.5016091895        5.6451724461
 Cd        -2.3858915769        3.0934174378       -7.5401750591
 Cd        -0.1312081529        1.7710080436       -4.3472667351
 Cd         2.1530144370        0.8603500588       -0.9631858667
 Cd         4.3039014830       -0.4401308995        2.5255098537
 Cd         6.4920099537       -0.6514685266        6.0110961988
 Cd         0.4035416823       -0.5929192263       -7.0624592338
 Cd         2.1510980531       -1.8414550358       -3.9632986576
 Cd         4.1301088885       -2.9778241867       -0.5482809696
 Cd         6.9197828147       -3.7966558486        2.8863083044
 Cd         1.0697274496       -4.7684907352       -6.7910816125
 Cd         3.6507711929       -5.7624177597       -3.6173925209
 Cd         5.7324232936       -6.5634849331       -0.3325455256
 Cd         2.4543355292        8.1227289616       -1.1568061933
 Cd         4.4056888307        7.2900639122        1.7946935127
 Cd         2.3803962546        5.2451431880       -4.8082157040
 Cd         4.8185179702        4.7187482383       -1.4277829410
 Cd         6.7583514090        3.8404294379        2.0310693295
 Cd         2.6209480310        2.7832319086       -7.7034604167
 Cd         4.8483162844        1.7851454333       -4.5236424250
 Cd         6.7274441055        1.0642810599       -0.9631134515
 Cd         8.8868224480        0.4155097562        2.4351456352
 Cd         4.3615747543       -0.9237081087       -7.7311568826
 Cd         6.7425588155       -1.9757335631       -4.2010673374
 Cd         8.5293422075       -2.6208176827       -0.2525696647
 Se        -9.0561663301        0.2442963135        0.9176389728
 Se        -6.3731215545       -0.6562272490        4.4187035537
 Se        -3.9339147802       -1.3485523596        8.2987617140
 Se        -6.5831823004       -3.7429220940        1.3875659500
 Se        -4.5790773788       -4.2757987670        4.8605961801
 Se        -4.6125896566       -7.7784150382        1.5323912485
 Se        -6.6437204867        3.9856287034        0.4560692540
 Se        -4.0723262587        2.6207513245        3.9151359798
 Se        -1.6325675262        2.0126845892        7.9272027997
 Se        -6.7141874244        0.9842556108       -3.1648767692
 Se        -4.4075804636       -0.2115019032        0.3946520609
 Se        -2.0526284174       -1.1148351613        4.2599246838
 Se         0.4058650499       -1.5660869352        8.0663991409
 Se        -4.4165183531       -3.1310535261       -2.8054990837
 Se        -2.2367379990       -4.0917162330        0.9473521821
 Se         0.1525953694       -4.8125062489        4.4863614101
 Se        -2.4164118424       -7.4225202949       -2.0536453836
 Se        -0.0658763386       -7.8811175225        1.3097748764
 Se        -4.5542667924        7.5952797575       -0.0140695505
 Se        -1.8483335035        6.3637800589        3.5415434259
 Se         0.4039908941        5.8258870036        7.5885751143
 Se        -4.4678293551        4.5545359602       -3.3490924995
 Se        -2.0808673223        3.7150382605        0.3431623183
 Se         0.4987661157        2.6963681593        3.7296055856
 Se         2.7719595887        1.9960913314        7.6276099487
 Se        -4.6150876514        2.0749885220       -6.9052343862
 Se        -2.2792896124        0.8533830924       -3.1263260783
 Se         0.0150755027       -0.1633862837        0.3856622809
 Se         2.3130955641       -1.3177895925        4.0002069986
 Se         4.8637542416       -1.8841645271        7.7369676113
 Se        -2.0693293865       -1.9666646402       -6.4607266037
 Se        -0.0439619896       -3.1606976264       -2.8087349384
 Se         2.2320156721       -4.2318385514        0.7811245508
 Se         4.8364767647       -4.9540724745        4.0968672730
 Se        -0.7552085409       -6.2870987433       -5.8414990625
 Se         1.9251147313       -7.4804629973       -2.6084173850
 Se         4.2590962571       -8.3814066127        0.7354621345
 Se         0.0351179501        7.3692483126       -0.4918957629
 Se         2.3817997757        6.5251929971        3.1442825450
 Se         0.0442779654        4.4290317685       -3.5947238561
 Se         2.5165606072        3.6273389432       -0.0587712098
 Se         4.7737484351        2.4653796730        3.1249935516
 Se         0.0453890716        1.9313890795       -6.9719212207
 Se         2.2765062370        0.7655380946       -3.6572163359
 Se         4.3773024154       -0.2853019977       -0.0190451457
 Se         6.9680197060       -1.1297395729        3.5574031226
 Se         2.2382514848       -2.2696316082       -6.6842981750
 Se         4.3745461282       -3.1976027113       -3.2161680892
 Se         6.4333986783       -4.1120627327        0.4116231709
 Se         4.8540404736        7.5525864492       -0.7467716417
 Se         4.8780182816        4.5493828055       -4.0137954691
 Se         7.0870649537        3.5947693554       -0.6427856391
 Se         4.7840629621        1.5276920055       -7.5556402044
 Se         6.9205525633        0.6110114980       -3.7073137235
 Se         9.1081567860       -0.0623122698       -0.0934166322
  C         6.9966613835       -6.9497473151       -2.8612738480
  H         7.7649322095       -7.1224747738       -3.6684216540
  O         5.8474801424       -6.4683327102       -3.1395196549
  O         7.2954988409       -7.2772455878       -1.6997080981
  C         3.3951070746       -6.2672554483       -6.9491308266
  H         4.3444066225       -6.8936096686       -7.0753272229
  O         3.0190222159       -5.7918749298       -5.7868872851
  O         2.6196353274       -6.1705931569       -7.9253669985
  C         6.3106261510       -2.9078817627       -7.4909514324
  H         7.1299137504       -3.7048862282       -7.4466889051
  O         6.0075695635       -2.3194752719       -6.3515669302
  O         5.9412494829       -2.4761321555       -8.6134989857
  C         8.9773738852       -3.3708994728       -3.4296123415
  H         9.9250180562       -3.8774829974       -3.1826003730
  O         8.5708341561       -3.4169299987       -4.6051380506
  O         8.2729383611       -2.6978169917       -2.5233532639
  C         9.7980042473       -4.6251732769        2.1809701657
  H        10.6408655401       -5.3318691344        2.3887999993
  O         9.7490085997       -4.1829522400        0.9946431061
  O         9.0342304943       -4.5701656420        3.1878505807
  C        -2.8217030586       -8.8883645768        5.3598602155
  H        -2.4154187803       -9.9024293192        5.4343946394
  O        -1.9862659824       -7.9311881525        5.0433778181
  O        -4.0902175841       -8.7290964452        5.4057726004
  C         2.9969024337       -8.6915449462        5.2874386481
  H         2.6967725338       -9.0398269484        6.2934215078
  O         2.0030831416       -8.3599130227        4.5608877871
  O         4.2224681841       -8.6073185276        4.9267260313
  C         2.8792651941       -5.7053320657        8.2323678329
  H         2.3955873073       -6.3773024893        8.9303283437
  O         2.2230443663       -4.8108784761        7.6178062040
  O         4.1490435335       -5.9063353629        8.1561701580
  C        -2.5346951510       -5.9173567017        8.5219173852
  H        -2.0052498086       -6.7390725628        9.0096019785
  O        -1.9200852757       -5.2610741766        7.5989022384
  O        -3.6521638592       -5.5111138835        8.8949863576
  C        -6.8630527242        2.3027179782        7.3891049484
  H        -7.2086193538        3.3071349018        7.3885257928
  O        -5.6244732572        2.1597363346        7.5355173075
  O        -7.6711914691        1.3718000960        7.2000145818
  C        -4.1170206226        6.2827584938        7.2281210276
  H        -5.2418933127        6.2896177269        7.3832000201
  O        -3.5295228834        5.2304048574        6.7748675079
  O        -3.5925594648        7.4680335954        7.3187926563
  C        -6.2567083522        7.1461808087        4.0781187465
  H        -7.2111390447        7.1649409639        4.6689854642
  O        -5.8094054690        6.0510376878        3.6298973420
  O        -5.6170382041        8.2229429340        3.8527917063
  C        -9.2741419264        2.9617127776        4.4605011356
  H        -9.7855372140        3.8838940690        4.7760086716
  O        -8.0603481512        3.0116785254        4.1204742073
  O       -10.0843967826        1.9826680167        4.3943214424
  C        -9.6032261775       -3.5281899439        4.2551351899
  H       -10.5971720209       -3.6001750875        4.7566807035
  O        -9.3838378498       -2.7226088512        3.2941430880
  O        -8.6856352517       -4.3056799986        4.7661777190
  C        -5.4081393326       -6.0791820764       -6.1561391749
  H        -6.0546960796       -6.5859836395       -6.8890942905
  O        -5.3133933334       -6.5051852771       -4.9697625578
  O        -4.8026159603       -5.0937313330       -6.6864202626
  C        -7.4874602449       -7.2704900297       -1.8348082339
  H        -7.8388434959       -7.7173330376       -2.7530342297
  O        -6.3903038114       -6.5557843070       -1.8865508659
  O        -8.0738687555       -7.4424786856       -0.7474422999
  C        -9.2562021740       -3.4270268200       -2.1219514714
  H        -9.5270787848       -4.0663584857       -2.9594189931
  O        -8.1708118220       -2.7562512673       -2.2723232060
  O        -9.8257076500       -3.4954419762       -1.0107394302
  C        -6.7206793895       -1.5101938515       -7.0045460213
  H        -7.7450574417       -1.9674181007       -7.1698505571
  O        -6.3204583178       -1.2782015989       -5.8019995212
  O        -6.0673163423       -1.2650711093       -8.0177270229
  C        -1.9628526644        5.6954775445       -7.4852654863
  H        -1.7770888886        6.7764005651       -7.4923242406
  O        -2.4615039004        5.1887390853       -6.4111368765
  O        -1.7548377352        5.0452210659       -8.5307598828
  C        -1.7168392132        9.0074492159       -3.7839198277
  H        -1.3493405476        9.2660238074       -4.8465614694
  O        -1.7686628020        7.7234001875       -3.5249891555
  O        -1.9632420377        9.8912116260       -2.9426345095
  C         2.5061931952        8.6538357277       -4.1272916459
  H         2.7131102182        9.0638249498       -5.0476060874
  O         2.0940217508        7.4563305044       -4.0296850638
  O         2.6629393296        9.4126639324       -3.1575729109
  C         1.7410952871        5.3672358630       -8.1968174126
  H         1.4358383610        6.4416008070       -8.3632925476
  O         2.2773988755        5.0783939522       -7.0471615695
  O         1.5301164311        4.4851530311       -9.0189245627
  C         9.4767936428        2.6096172534        3.9000240084
  H         9.6131090334        3.4671477718        4.5843902861
  O         8.5307299645        2.7177542313        3.0516342775
  O        10.1905107346        1.5418808782        4.0355550874
  C         6.6326272697        7.0382375359        3.3282316874
  H         7.5082674956        7.1289998248        4.0070788575
  O         6.4956019217        6.1626469510        2.4476557468
  O         5.7975683419        7.9038695339        3.5839905595
  C         4.7447862728        5.8524531083        6.9353327493
  H         5.7085862008        5.7040540943        7.4370666698
  O         4.3297359943        4.9889871073        6.0817311335
  O         4.1505199922        6.9237634814        7.1400697262
  C         7.5603220031        1.7452842183        7.1878081818
  H         8.1158840311        2.6116602203        7.6593692779
  O         6.7476661273        2.0302990310        6.2248906579
  O         7.8448345978        0.5833796009        7.5910133321
     227
 i =        2, time =        2.000, E =        11.9714470026
 Cd        -8.6166143771        0.4774957258        3.4782800803
 Cd        -5.8741619487       -0.2567265958        7.1122875784
 Cd        -8.4091844839       -2.1571486802        0.3822938857
 Cd        -6.8885152361       -3.2922033233        3.9624416996