     227
 i =        0, time =        0.000, E =        -3.3332686421
 Cd        -8.6216924880        0.4810107428        3.4775887729
 Cd        -5.8723589632       -0.2566559957        7.1151373767
 Cd        -8.4076147924       -2.1531404527        0.3867588804
 Cd        -6.8957642261       -3.2896665849        3.9600318291
 Cd        -3.6930098048       -3.6992689615        7.3819491709
 Cd        -6.4429261463       -6.2347087238        0.4622469067
 Cd        -4.3123952394       -6.8285875372        3.9039095072
 Cd        -6.1141073353        3.8626235599        2.9066844924
 Cd        -3.6048790416        2.8797284733        6.5917986711
 Cd        -6.7531255596        1.1841266196       -0.3182182747
 Cd        -4.0437606329        0.0729837467        3.0511954168
 Cd        -1.7753257667       -0.3121054857        6.8316599018
 Cd        -6.3661028473       -1.4630135273       -3.4383357626
 Cd        -4.3602814436       -3.1214810613       -0.1759283953
 Cd        -2.2424276819       -3.6242998489        3.6335413818
 Cd         0.1757294635       -3.9625201566        7.0364714760
 Cd        -4.2692200317       -5.9860442556       -3.0005266361
 Cd        -2.2482225396       -6.7972628816        0.6786391664
 Cd         0.0669003827       -7.3030327295        3.8545421700
 Cd        -4.0792754193        7.4105475565        2.4175118797
 Cd        -1.6116442377        6.4880648240        6.2478272306
 Cd        -4.3308002626        4.8127262164       -0.6762739309
 Cd        -1.8326132452        3.6694977750        3.1598212265
 Cd         0.4939817277        3.1637060931        6.7202662426
 Cd        -4.5980154021        1.9988297698       -4.0880170010
 Cd        -2.1651194586        1.0165564496       -0.4536921834
 Cd         0.1376109507       -0.0659106884        3.1336818174
 Cd         2.6419074521       -0.6636939286        6.8958319365
 Cd        -4.1515129292       -0.5348426091       -6.9620217917
 Cd        -2.2012490343       -1.8491984656       -3.4894107829
 Cd         0.0359311218       -2.8494155653       -0.0264680683
 Cd         2.4407298775       -3.8224684908        3.5289587884
 Cd         4.5907434619       -4.2169180472        6.5928471603
 Cd        -2.6321953796       -4.5685798778       -6.0773989300
 Cd        -0.3638438279       -6.1221236347       -3.0620735359
 Cd         1.9882729153       -6.8506852632       -0.0376753302
 Cd         4.3604701588       -7.5063202656        3.0981086138
 Cd        -2.4313710890        8.2839908015       -1.2010761441
 Cd         0.1210964618        6.7915494583        2.0748938605
 Cd         2.2602783261        6.3879934074        5.9824457591
 Cd        -2.2743307721        5.5403016700       -4.1096429978
 Cd         0.1552258413        4.6164378819       -0.9814446932
 Cd         2.6173372932        3.7540356816        2.4616712460
 Cd         4.3934694910        2.5024270436        5.6448470259
 Cd        -2.3839877703        3.0961459608       -7.5397423510
 Cd        -0.1308699873        1.7716472388       -4.3458913396
 Cd         2.1522040622        0.8595996928       -0.9600505658
 Cd         4.3027041934       -0.4425155449        2.5248589789
 Cd         6.4943132815       -0.6514444341        6.0110723312
 Cd         0.4032906214       -0.5920449882       -7.0625722312
 Cd         2.1504065746       -1.8410095193       -3.9631978812
 Cd         4.1282053355       -2.9764966895       -0.5499119195
 Cd         6.9189885741       -3.8001688729        2.8840486736
 Cd         1.0693858855       -4.7693596381       -6.7909688629
 Cd         3.6529341800       -5.7620820022       -3.6150795142
 Cd         5.7341856059       -6.5625995016       -0.3323817960
 Cd         2.4532379782        8.1225833618       -1.1556872380
 Cd         4.4025673150        7.2904811152        1.7928276254
 Cd         2.3800547108        5.2453457502       -4.8107637235
 Cd         4.8184663347        4.7191125514       -1.4277792117
 Cd         6.7589411702        3.8390778732        2.0295448973
 Cd         2.6210634084        2.7844913241       -7.7035228004
 Cd         4.8495943395        1.7843685348       -4.5225056138
 Cd         6.7261500983        1.0662237140       -0.9642295531
 Cd         8.8881450478        0.4141445330        2.4369093904
 Cd         4.3615782352       -0.9213178924       -7.7328888960
 Cd         6.7438649008       -1.9767569930       -4.2031112584
 Cd         8.5272445020       -2.6218905711       -0.2551455218
 Se        -9.0557725106        0.2424574140        0.9180313808
 Se        -6.3745872764       -0.6570220647        4.4225742627
 Se        -3.9358548519       -1.3506397678        8.2925868769
 Se        -6.5830028390       -3.7408669090        1.3890860046
 Se        -4.5802302415       -4.2716541219        4.8585926421
 Se        -4.6110671623       -7.7792240778        1.5343213278
 Se        -6.6407812351        3.9866809498        0.4586064126
 Se        -4.0705866514        2.6241591830        3.9150270775
 Se        -1.6315747320        2.0143859544        7.9219454430
 Se        -6.7106235468        0.9827493806       -3.1628202938
 Se        -4.4077684895       -0.2106461950        0.3970531668
 Se        -2.0534879979       -1.1190641497        4.2604482105
 Se         0.4069246601       -1.5676855049        8.0617057342
 Se        -4.4126107232       -3.1307459794       -2.8028288282
 Se        -2.2371864822       -4.0884616040        0.9473336128
 Se         0.1541797359       -4.8148952714        4.4843326207
 Se        -2.4147106009       -7.4199706225       -2.0529393442
 Se        -0.0662571417       -7.8800811154        1.3078284855
 Se        -4.5519687636        7.5920037884       -0.0122560791
 Se        -1.8482840651        6.3647212661        3.5390459072
 Se         0.4006735392        5.8241498358        7.5878867146
 Se        -4.4655945585        4.5529209660       -3.3484418515
 Se        -2.0798083538        3.7153034916        0.3451575142
 Se         0.4973892782        2.6967113851        3.7286137790
 Se         2.7724753484        1.9958260876        7.6298945277
 Se        -4.6126224962        2.0736182894       -6.9031574659
 Se        -2.2770211290        0.8531533747       -3.1284312065
 Se         0.0138865169       -0.1636477002        0.3858468104
 Se         2.3115473387       -1.3198431962        4.0017354986
 Se         4.8624545925       -1.8855864388        7.7371297607
 Se        -2.0700877949       -1.9675257511       -6.4603372509
 Se        -0.0447057629       -3.1582708631       -2.8090856920
 Se         2.2343306950       -4.2299664240        0.7817840723
 Se         4.8342987615       -4.9516929708        4.0974643468
 Se        -0.7556003326       -6.2829108386       -5.8406699955
 Se         1.9243057511       -7.4784768035       -2.6074198353
 Se         4.2543989663       -8.3809591814        0.7363809319
 Se         0.0386925703        7.3677075300       -0.4939635450
 Se         2.3791568525        6.5289221229        3.1400383851
 Se         0.0465974103        4.4270318221       -3.5936563407
 Se         2.5167269427        3.6273521599       -0.0581806204
 Se         4.7705604635        2.4670139639        3.1233546104
 Se         0.0435933033        1.9323944164       -6.9695738842
 Se         2.2733127965        0.7623703678       -3.6584263160
 Se         4.3816175435       -0.2841549253       -0.0177063702
 Se         6.9670500347       -1.1290204494        3.5565582379
 Se         2.2410869402       -2.2702007814       -6.6798205275
 Se         4.3723294721       -3.1971869108       -3.2130677403
 Se         6.4331938555       -4.1098532443        0.4136420186
 Se         4.8503033307        7.5509093293       -0.7463548497
 Se         4.8776288797        4.5477652435       -4.0091414448
 Se         7.0830986217        3.5950723552       -0.6434567968
 Se         4.7810064642        1.5273410534       -7.5566303287
 Se         6.9188050062        0.6130038217       -3.7081238627
 Se         9.1066871843       -0.0609359671       -0.0919647969
  C         6.9955771113       -6.9586634775       -2.8583426301
  H         7.7780160969       -7.1271873265       -3.6573399650
  O         5.8389952916       -6.4652991204       -3.1445809228
  O         7.2920676004       -7.2683568805       -1.6893132711
  C         3.3939431960       -6.2668607509       -6.9513074648
  H         4.3245440932       -6.8689211647       -7.0591687882
  O         3.0202466073       -5.7860511295       -5.7843136273
  O         2.6220129789       -6.1746538788       -7.9242101403
  C         6.3116555909       -2.9071154185       -7.4921130606
  H         7.0978863851       -3.7212906458       -7.4285512081
  O         6.0096715894       -2.3219711192       -6.3505932827
  O         5.9403243477       -2.4750431756       -8.6116316973
  C         8.9837561036       -3.3697375837       -3.4349055328
  H         9.9249943929       -3.8864043165       -3.1840078659
  O         8.5659407989       -3.4209184445       -4.6048832464
  O         8.2714489672       -2.6971151254       -2.5207012617
  C         9.7902109758       -4.6282247391        2.1768529346
  H        10.6284324694       -5.3337138149        2.3552924638
  O         9.7484501532       -4.1824896055        0.9942458601
  O         9.0219926648       -4.5705851174        3.1873629795
  C        -2.8252708508       -8.8894178348        5.3653894160
  H        -2.3915771747       -9.8892286280        5.4446685031
  O        -1.9808601030       -7.9304545651        5.0436955975
  O        -4.0908415257       -8.7280019527        5.4030844137
  C         3.0047406823       -8.6887063298        5.2919739424
  H         2.6853413808       -9.0312323512        6.2714246943
  O         1.9985977812       -8.3553887881        4.5599054594
  O         4.2197147413       -8.6069092298        4.9235206312
  C         2.8732291572       -5.7090624943        8.2322507888
  H         2.4095730423       -6.3582442170        8.9295273658
  O         2.2236878889       -4.8031284854        7.6183804854
  O         4.1525405945       -5.8988692439        8.1468427445
  C        -2.5324052264       -5.9090323801        8.5168983878
  H        -2.0058427467       -6.7599986745        9.0204193621
  O        -1.9189018681       -5.2527647032        7.5983339134
  O        -3.6521974131       -5.4981014961        8.8936623702
  C        -6.8661340661        2.3082426882        7.3884767521
  H        -7.2433530482        3.2983326111        7.3747512577
  O        -5.6189307919        2.1553364867        7.5292857639
  O        -7.6694328727        1.3672322100        7.2032576312
  C        -4.1128935570        6.2776012356        7.2258109093
  H        -5.2184092536        6.2949225170        7.4003980339
  O        -3.5215502414        5.2331222329        6.7794929280
  O        -3.5956064510        7.4679880815        7.3184340370
  C        -6.2584500423        7.1467273309        4.0778865765
  H        -7.2018864753        7.1620259062        4.6862261037
  O        -5.8042352338        6.0508881806        3.6277903665
  O        -5.6141473350        8.2227071687        3.8530055117
  C        -9.2670155991        2.9624473135        4.4549609073
  H        -9.7760873251        3.8307467380        4.7753730710
  O        -8.0580447847        3.0137717908        4.1153681461
  O       -10.0869615960        1.9755230626        4.3964141791
  C        -9.5997958208       -3.5202239981        4.2555074891
  H       -10.6284324694       -3.6062117458        4.7363993397
  O        -9.3836198173       -2.7271085544        3.2939504316
  O        -8.6749593009       -4.3055307223        4.7674147240
  C        -5.4063829718       -6.0836320759       -6.1576393485
  H        -6.0390997038       -6.5934387315       -6.8768176703
  O        -5.3157147411       -6.5042627408       -4.9638375967
  O        -4.7997118332       -5.0931497246       -6.6842330004
  C        -7.4812021438       -7.2683192216       -1.8337008205
  H        -7.8430239833       -7.7214409635       -2.7403108931
  O        -6.3847231004       -6.5596142310       -1.8855223803
  O        -8.0870004405       -7.4369608581       -0.7449951352
  C        -9.2637717352       -3.4248031045       -2.1287629167
  H        -9.5435102925       -4.0726156799       -2.9624854104
  O        -8.1685743898       -2.7562864935       -2.2769679175
  O        -9.8293124780       -3.4993302663       -1.0042472880
  C        -6.7198117275       -1.5155721631       -7.0057360974
  H        -7.7266400310       -1.9701098143       -7.1795729881
  O        -6.3208037730       -1.2812141421       -5.7891801227
  O        -6.0546670581       -1.2647410752       -8.0219575549
  C        -1.9610306020        5.6962737072       -7.4797868569
  H        -1.8068881661        6.7616764611       -7.4798700689
  O        -2.4613788677        5.1953402046       -6.4147373301
  O        -1.7592038190        5.0404242691       -8.5376948407
  C        -1.7153677193        9.0065729983       -3.7807068554
  H        -1.3518565997        9.2891789052       -4.8285272378
  O        -1.7735635219        7.7204009534       -3.5311974415
  O        -1.9589811591        9.8892286280       -2.9296575010
  C         2.5176986766        8.6527359013       -4.1276241396
  H         2.7356319561        9.0838176512       -5.0545617483
  O         2.0941304229        7.4607563111       -4.0382054964
  O         2.6632020791        9.4136986823       -3.1567247192
  C         1.7405814703        5.3615037054       -8.2026998584
  H         1.4592813282        6.4433815072       -8.3446733349
  O         2.2712544771        5.0744229803       -7.0359036782
  O         1.5374971892        4.4786315137       -9.0204193621
  C         9.4791869119        2.6134878200        3.9079418032
  H         9.6264681644        3.4611325178        4.5867541287
  O         8.5294682966        2.7206869475        3.0468687327
  O        10.1884170796        1.5361363159        4.0354546634
  C         6.6320899766        7.0427804887        3.3240585285
  H         7.5183451153        7.1103565644        4.0025867163
  O         6.4921259472        6.1579139584        2.4473334656
  O         5.8014508194        7.8970951585        3.5804466065
  C         4.7468288793        5.8510846562        6.9391041765
  H         5.6837062732        5.7110173508        7.4566454645
  O         4.3315486404        4.9881730889        6.0840680113
  O         4.1390624477        6.9214380767        7.1338855679
  C         7.5642974957        1.7429307679        7.1823006621
  H         8.1116275708        2.6102062210        7.6466333920
  O         6.7423080014        2.0330978891        6.2208765696
  O         7.8434776238        0.5800715711        7.5931108165
     227
 i =        1, time =        1.000, E =        -3.3593360682
 Cd        -8.6193156909        0.4795877862        3.4772604305
 Cd        -5.8717402283       -0.2571423573        7.1143113420
 Cd        -8.4082312036       -2.1542556613        0.3851506228
 Cd        -6.8926536396       -3.2917005203        3.9611125554
 Cd        -3.6901942841       -3.7005066326        7.3822765469
 Cd        -6.4420334759       -6.2357200276        0.4642995744
 Cd        -4.3123237979       -6.8295598603        3.9053766994
 Cd        -6.1164517317        3.8609152334        2.9057585890
 Cd        -3.6067465259        2.8812793395        6.5902852101
 Cd        -6.7534146722        1.1872616468       -0.3192314978
 Cd        -4.0444879050        0.0755158934        3.0501374003
 Cd        -1.7741915941       -0.3127082985        6.8335099423
 Cd        -6.3661345733       -1.4627216859       -3.4401696376
 Cd        -4.3614753348       -3.1217094792       -0.1745170032
 Cd        -2.2425885836       -3.6217217742        3.6335866732
 Cd         0.1785645903       -3.9616518893        7.0369341686
 Cd        -4.2694743327       -5.9880380393       -2.9988679959
 Cd        -2.2488924912       -6.7965211456        0.6791012146
 Cd         0.0677161173       -7.3031208526        3.8542912390
 Cd        -4.0801334925        7.4119012061        2.4184715483
 Cd        -1.6109192769        6.4880780291        6.2508263354
 Cd        -4.3325124503        4.8128597691       -0.6769261983
 Cd        -1.8303897091        3.6696654919        3.1588706585
 Cd         0.4898110068        3.1633823185        6.7204248655
 Cd        -4.5994243990        2.0001291186       -4.0891448851
 Cd        -2.1629464080        1.0182214375       -0.4517371382
 Cd         0.1384089411       -0.0680860817        3.1343826046
 Cd         2.6424382494       -0.6635250958        6.8957864638
 Cd        -4.1540904230       -0.5351187467       -6.9611217900
 Cd        -2.2032031110       -1.8490212266       -3.4901121053
 Cd         0.0357903734       -2.8474913194       -0.0251067246
 Cd         2.4397548815       -3.8217218636        3.5304129115
 Cd         4.5938414204       -4.2152265906        6.5946895004
 Cd        -2.6317963528       -4.5698844655       -6.0785092406
 Cd        -0.3609219426       -6.1209167705       -3.0631554312
 Cd         1.9864769486       -6.8522978827       -0.0374176032
 Cd         4.3579032617       -7.5047698648        3.0973077994
 Cd        -2.4319094638        8.2868164267       -1.2004305047
 Cd         0.1211432761        6.7912099368        2.0745750944
 Cd         2.2581457819        6.3879953114        5.9823773247
 Cd        -2.2739343131        5.5406432821       -4.1121791450
 Cd         0.1544504549        4.6148758886       -0.9822407383
 Cd         2.6164590250        3.7534925611        2.4612301864
 Cd         4.3939525198        2.5015431030        5.6448076659
 Cd        -2.3863290117        3.0936358910       -7.5399626186
 Cd        -0.1312490703        1.7709346591       -4.3473785656
 Cd         2.1531230209        0.8601000784       -0.9631941808
 Cd         4.3035678212       -0.4402303883        2.5249843828
 Cd         6.4920156158       -0.6517082562        6.0106342819
 Cd         0.4040840722       -0.5928127012       -7.0622097732
 Cd         2.1512521488       -1.8411801930       -3.9633199774
 Cd         4.1299990991       -2.9779709137       -0.5482412324
 Cd         6.9198087325       -3.7968982727        2.8857235205
 Cd         1.0695891764       -4.7690198617       -6.7907737440
 Cd         3.6506562704       -5.7624858112       -3.6176331001
 Cd         5.7328256619       -6.5638864178       -0.3327141674
 Cd         2.4549242460        8.1224028477       -1.1566505780
 Cd         4.4054236836        7.2898586071        1.7947925724
 Cd         2.3804010437        5.2451861679       -4.8085961189
 Cd         4.8188598834        4.7185237272       -1.4282480221
 Cd         6.7582550375        3.8402176158        2.0311230539
 Cd         2.6215863375        2.7829795464       -7.7033962357
 Cd         4.8490819631        1.7847834631       -4.5232562382
 Cd         6.7276414586        1.0648329108       -0.9631044329
 Cd         8.8867593130        0.4155585898        2.4348827755
 Cd         4.3617374436       -0.9228817897       -7.7309819341
 Cd         6.7427178341       -1.9756438702       -4.2012190902
 Cd         8.5291799166       -2.6208060469       -0.2527316954
 Se        -9.0551222491        0.2432455438        0.9181338131
 Se        -6.3728250963       -0.6564349540        4.4183854724
 Se        -3.9343748587       -1.3488459218        8.2970837609
 Se        -6.5830871256       -3.7426393880        1.3879325058
 Se        -4.5790836674       -4.2750675948        4.8599338827
 Se        -4.6123146832       -7.7770431037        1.5327253114
 Se        -6.6426306872        3.9855769109        0.4572837360
 Se        -4.0720428047        2.6208042477        3.9144866212
 Se        -1.6331218253        2.0119610416        7.9256513231
 Se        -6.7123018629        0.9832800591       -3.1652781022
 Se        -4.4071990611       -0.2112654257        0.3948318544
 Se        -2.0530141742       -1.1152230324        4.2595216924
 Se         0.4059587332       -1.5661107480        8.0654117385
 Se        -4.4161617469       -3.1302461867       -2.8048652078
 Se        -2.2372731537       -4.0916242241        0.9472428590
 Se         0.1529509158       -4.8126716584        4.4859033705
 Se        -2.4165163745       -7.4210939848       -2.0538709982
 Se        -0.0666974402       -7.8796290234        1.3095807147
 Se        -4.5526634770        7.5949475010       -0.0129709049
 Se        -1.8471297737        6.3634181817        3.5404197170
 Se         0.4037706041        5.8260902467        7.5865505709
 Se        -4.4664976963        4.5540949945       -3.3489654985
 Se        -2.0809611797        3.7152005354        0.3431749596
 Se         0.4983624837        2.6968490537        3.7289077404
 Se         2.7718226853        1.9959050103        7.6265778643
 Se        -4.6136557601        2.0748415995       -6.9049862264
 Se        -2.2789920422        0.8534926204       -3.1261549049
 Se         0.0146815669       -0.1632613504        0.3854622235
 Se         2.3129997769       -1.3186519236        3.9993054114
 Se         4.8632986184       -1.8842616079        7.7358004856
 Se        -2.0699878557       -1.9664759186       -6.4604632615
 Se        -0.0445378385       -3.1601210907       -2.8087779365
 Se         2.2322529209       -4.2315576647        0.7809844249
 Se         4.8363004722       -4.9533149937        4.0967470928
 Se        -0.7551825245       -6.2853907609       -5.8414117203
 Se         1.9250257213       -7.4794128348       -2.6078052927
 Se         4.2592925366       -8.3797367800        0.7361695985
 Se         0.0355364943        7.3687645352       -0.4914266132
 Se         2.3811005811        6.5252046454        3.1429018785
 Se         0.0438583546        4.4288380662       -3.5941607934
 Se         2.5164358158        3.6274150866       -0.0573098184
 Se         4.7729239535        2.4659798616        3.1252171978
 Se         0.0454721293        1.9302712431       -6.9708265048
 Se         2.2759992156        0.7650103164       -3.6571077228
 Se         4.3768167386       -0.2853511452       -0.0181090979
 Se         6.9677857774       -1.1295103652        3.5580314446
 Se         2.2372833842       -2.2685101212       -6.6839004630
 Se         4.3739029615       -3.1974828732       -3.2157548758
 Se         6.4330921098       -4.1117702898        0.4126358168
 Se         4.8521710099        7.5524525970       -0.7461309838
 Se         4.8776299756        4.5490778462       -4.0126108595
 Se         7.0859574297        3.5937777908       -0.6428864322
 Se         4.7822802449        1.5267394559       -7.5555672667
 Se         6.9190454709        0.6111971151       -3.7073596823
 Se         9.1071927261       -0.0625776098       -0.0925854136
  C         6.9966758974       -6.9498266155       -2.8612701735
  H         7.7649322095       -7.1224747738       -3.6684216540
  O         5.8449418606       -6.4676783134       -3.1399695678
  O         7.2902606416       -7.2749363063       -1.6951423419
  C         3.3950717683       -6.2672988581       -6.9491737437
  H         4.3444066225       -6.8936096686       -7.0753272229
  O         3.0189938386       -5.7912352805       -5.7832717311
  O         2.6182145340       -6.1693444183       -7.9243487997
  C         6.3106276857       -2.9078551562       -7.4910405065
  H         7.1299137504       -3.7048862282       -7.4466889051
  O         6.0084725960       -2.3184991364       -6.3485732096
  O         5.9398396431       -2.4747078730       -8.6127306755
  C         8.9774375299       -3.3708834354       -3.4296435269
  H         9.9250180562       -3.8774829974       -3.1826003730
  O         8.5688972924       -3.4153694766       -4.6047506055
  O         8.2721238564       -2.6970943688       -2.5209838256
  C         9.7980644173       -4.6251968886        2.1809940337
  H        10.6408655401       -5.3318691344        2.3887999993
  O         9.7480549975       -4.1811157488        0.9931688186
  O         9.0300415790       -4.5686616301        3.1872919667
  C        -2.8217270518       -8.8884275427        5.3598598018
  H        -2.4154187803       -9.9024293192        5.4343946394
  O        -1.9851461292       -7.9308535970        5.0426134659
  O        -4.0904024501       -8.7278546381        5.4047776332
  C         2.9969190474       -8.6916113602        5.2874283617
  H         2.6967725338       -9.0398269484        6.2934215078
  O         2.0002765777       -8.3584142358        4.5598317039
  O         4.2231380724       -8.6023138064        4.9182616712
  C         2.8792987011       -5.7053277098        8.2324192211
  H         2.3955873073       -6.3773024893        8.9303283437
  O         2.2200317197       -4.8094594534        7.6167871895
  O         4.1496422241       -5.9041948995        8.1542432526
  C        -2.5347106425       -5.9173491316        8.5219939631
  H        -2.0052498086       -6.7390725628        9.0096019785
  O        -1.9211089036       -5.2590352313        7.5985859775
  O        -3.6522200077       -5.5090811492        8.8933160862
  C        -6.8630658186        2.3027076877        7.3891922908
  H        -7.2086193538        3.3071349018        7.3885257928
  O        -5.6221376038        2.1593057994        7.5341838258
  O        -7.6700006875        1.3707129059        7.2000754374
  C        -4.1169999035        6.2827978006        7.2281816510
  H        -5.2418933127        6.2896177269        7.3832000201
  O        -3.5274513599        5.2294244910        6.7741752220
  O        -3.5914547518        7.4675093432        7.3182489615
  C        -6.2567382121        7.1462347691        4.0780962964
  H        -7.2111390447        7.1649409639        4.6689854642
  O        -5.8092090587        6.0487087455        3.6284233949
  O        -5.6138307264        8.2212806455        3.8497378481
  C        -9.2742099826        2.9617511017        4.4604803668
  H        -9.7855372140        3.8838940690        4.7760086716
  O        -8.0592523842        3.0118803198        4.1195962790
  O       -10.0819133661        1.9801084382        4.3927379284
  C        -9.6032727502       -3.5282162780        4.2551628700
  H       -10.5971720209       -3.6001750875        4.7566807035
  O        -9.3836950761       -2.7227875591        3.2944010721
  O        -8.6803651778       -4.3026709070        4.7637903412
  C        -5.4081383983       -6.0792273393       -6.1561875095
  H        -6.0546960796       -6.5859836395       -6.8890942905
  O        -5.3116320543       -6.5043846427       -4.9663254150
  O        -4.7994486747       -5.0930035270       -6.6855932316
  C        -7.4874895131       -7.2705627355       -1.8347959251
  H        -7.8388434959       -7.7173330376       -2.7530342297
  O        -6.3891756021       -6.5552040955       -1.8848724828
  O        -8.0722382351       -7.4412966272       -0.7462348775
  C        -9.2562687261       -3.4270016901       -2.1219728191
  H        -9.5270787848       -4.0663584857       -2.9594189931
  O        -8.1701649560       -2.7556174902       -2.2726304395
  O        -9.8246153438       -3.4943290061       -1.0096022288
  C        -6.7207061950       -1.5101505488       -7.0045939087
  H        -7.7450574417       -1.9674181007       -7.1698505571
  O        -6.3200077398       -1.2783511079       -5.7999804967
  O        -6.0643241173       -1.2639257393       -8.0160839113
  C        -1.9629019881        5.6954888554       -7.4853119335
  H        -1.7770888886        6.7764005651       -7.4923242406
  O        -2.4612163727        5.1873231847       -6.4094361542
  O        -1.7560482344        5.0416370778       -8.5289709754
  C        -1.7168877869        9.0075032545       -3.7839145661
  H        -1.3493405476        9.2660238074       -4.8465614694
  O        -1.7698718196        7.7205528842       -3.5249143944
  O        -1.9636471370        9.8900054282       -2.9413016287
  C         2.5062355876        8.6538826063       -4.1272907079
  H         2.7131102182        9.0638249498       -5.0476060874
  O         2.0944174356        7.4541243456       -4.0305224989
  O         2.6627504174        9.4115878523       -3.1558830055
  C         1.7411525874        5.3672421818       -8.1968623386
  H         1.4358383610        6.4416008070       -8.3632925476
  O         2.2780058585        5.0771097118       -7.0423297383
  O         1.5310503279        4.4839353800       -9.0180237935
  C         9.4768759726        2.6096268204        3.9000014400
  H         9.6131090334        3.4671477718        4.5843902861
  O         8.5287771274        2.7174797422        3.0498060543
  O        10.1890377383        1.5405818774        4.0336973869
  C         6.6326577846        7.0382999555        3.3282051678
  H         7.5082674956        7.1289998248        4.0070788575
  O         6.4948139930        6.1609724647        2.4468963315
  O         5.7961107975        7.9032687218        3.5819642933
  C         4.7447686405        5.8524808064        6.9353937431
  H         5.7085862008        5.7040540943        7.4370666698
  O         4.3289607552        4.9887604566        6.0816231930
  O         4.1469016007        6.9227542662        7.1378812977
  C         7.5603366186        1.7452811931        7.1878777903
  H         8.1158840311        2.6116602203        7.6593692779
  O         6.7463841516        2.0302623938        6.2246819327
  O         7.8438814785        0.5824918605        7.5898953000
     227
 i =        2, time =        2.000, E =        -3.4227415497
 Cd        -8.6168952237        0.4781013783        3.4771304762
 Cd        -5.8715783313       -0.2574438225        7.1133096899
 Cd        -8.4089262843       -2.1556516230        0.3833436939
 Cd        -6.8893980186       -3.2935062222        3.9622145888