     227
 i =        0, time =        0.000, E =        -6.3806339238
 Cd        -8.6216924880        0.4810107428        3.4775887729
 Cd        -5.8723589632       -0.2566559957        7.1151373767
 Cd        -8.4076147924       -2.1531404527        0.3867588804
 Cd        -6.8957642261       -3.2896665849        3.9600318291
 Cd        -3.6930098048       -3.6992689615        7.3819491709
 Cd        -6.4429261463       -6.2347087238        0.4622469067
 Cd        -4.3123952394       -6.8285875372        3.9039095072
 Cd        -6.1141073353        3.8626235599        2.9066844924
 Cd        -3.6048790416        2.8797284733        6.5917986711
 Cd        -6.7531255596        1.1841266196       -0.3182182747
 Cd        -4.0437606329        0.0729837467        3.0511954168
 Cd        -1.7753257667       -0.3121054857        6.8316599018
 Cd        -6.3661028473       -1.4630135273       -3.4383357626
 Cd        -4.3602814436       -3.1214810613       -0.1759283953
 Cd        -2.2424276819       -3.6242998489        3.6335413818
 Cd         0.1757294635       -3.9625201566        7.0364714760
 Cd        -4.2692200317       -5.9860442556       -3.0005266361
 Cd        -2.2482225396       -6.7972628816        0.6786391664
 Cd         0.0669003827       -7.3030327295        3.8545421700
 Cd        -4.0792754193        7.4105475565        2.4175118797
 Cd        -1.6116442377        6.4880648240        6.2478272306
 Cd        -4.3308002626        4.8127262164       -0.6762739309
 Cd        -1.8326132452        3.6694977750        3.1598212265
 Cd         0.4939817277        3.1637060931        6.7202662426
 Cd        -4.5980154021        1.9988297698       -4.0880170010
 Cd        -2.1651194586        1.0165564496       -0.4536921834
 Cd         0.1376109507       -0.0659106884        3.1336818174
 Cd         2.6419074521       -0.6636939286        6.8958319365
 Cd        -4.1515129292       -0.5348426091       -6.9620217917
 Cd        -2.2012490343       -1.8491984656       -3.4894107829
 Cd         0.0359311218       -2.8494155653       -0.0264680683
 Cd         2.4407298775       -3.8224684908        3.5289587884
 Cd         4.5907434619       -4.2169180472        6.5928471603
 Cd        -2.6321953796       -4.5685798778       -6.0773989300
 Cd        -0.3638438279       -6.1221236347       -3.0620735359
 Cd         1.9882729153       -6.8506852632       -0.0376753302
 Cd         4.3604701588       -7.5063202656        3.0981086138
 Cd        -2.4313710890        8.2839908015       -1.2010761441
 Cd         0.1210964618        6.7915494583        2.0748938605
 Cd         2.2602783261        6.3879934074        5.9824457591
 Cd        -2.2743307721        5.5403016700       -4.1096429978
 Cd         0.1552258413        4.6164378819       -0.9814446932
 Cd         2.6173372932        3.7540356816        2.4616712460
 Cd         4.3934694910        2.5024270436        5.6448470259
 Cd        -2.3839877703        3.0961459608       -7.5397423510
 Cd        -0.1308699873        1.7716472388       -4.3458913396
 Cd         2.1522040622        0.8595996928       -0.9600505658
 Cd         4.3027041934       -0.4425155449        2.5248589789
 Cd         6.4943132815       -0.6514444341        6.0110723312
 Cd         0.4032906214       -0.5920449882       -7.0625722312
 Cd         2.1504065746       -1.8410095193       -3.9631978812
 Cd         4.1282053355       -2.9764966895       -0.5499119195
 Cd         6.9189885741       -3.8001688729        2.8840486736
 Cd         1.0693858855       -4.7693596381       -6.7909688629
 Cd         3.6529341800       -5.7620820022       -3.6150795142
 Cd         5.7341856059       -6.5625995016       -0.3323817960
 Cd         2.4532379782        8.1225833618       -1.1556872380
 Cd         4.4025673150        7.2904811152        1.7928276254
 Cd         2.3800547108        5.2453457502       -4.8107637235
 Cd         4.8184663347        4.7191125514       -1.4277792117
 Cd         6.7589411702        3.8390778732        2.0295448973
 Cd         2.6210634084        2.7844913241       -7.7035228004
 Cd         4.8495943395        1.7843685348       -4.5225056138
 Cd         6.7261500983        1.0662237140       -0.9642295531
 Cd         8.8881450478        0.4141445330        2.4369093904
 Cd         4.3615782352       -0.9213178924       -7.7328888960
 Cd         6.7438649008       -1.9767569930       -4.2031112584
 Cd         8.5272445020       -2.6218905711       -0.2551455218
 Se        -9.0557725106        0.2424574140        0.9180313808
 Se        -6.3745872764       -0.6570220647        4.4225742627
 Se        -3.9358548519       -1.3506397678        8.2925868769
 Se        -6.5830028390       -3.7408669090        1.3890860046
 Se        -4.5802302415       -4.2716541219        4.8585926421
 Se        -4.6110671623       -7.7792240778        1.5343213278
 Se        -6.6407812351        3.9866809498        0.4586064126
 Se        -4.0705866514        2.6241591830        3.9150270775
 Se        -1.6315747320        2.0143859544        7.9219454430
 Se        -6.7106235468        0.9827493806       -3.1628202938
 Se        -4.4077684895       -0.2106461950        0.3970531668
 Se        -2.0534879979       -1.1190641497        4.2604482105
 Se         0.4069246601       -1.5676855049        8.0617057342
 Se        -4.4126107232       -3.1307459794       -2.8028288282
 Se        -2.2371864822       -4.0884616040        0.9473336128
 Se         0.1541797359       -4.8148952714        4.4843326207
 Se        -2.4147106009       -7.4199706225       -2.0529393442
 Se        -0.0662571417       -7.8800811154        1.3078284855
 Se        -4.5519687636        7.5920037884       -0.0122560791
 Se        -1.8482840651        6.3647212661        3.5390459072
 Se         0.4006735392        5.8241498358        7.5878867146
 Se        -4.4655945585        4.5529209660       -3.3484418515
 Se        -2.0798083538        3.7153034916        0.3451575142
 Se         0.4973892782        2.6967113851        3.7286137790
 Se         2.7724753484        1.9958260876        7.6298945277
 Se        -4.6126224962        2.0736182894       -6.9031574659
 Se        -2.2770211290        0.8531533747       -3.1284312065
 Se         0.0138865169       -0.1636477002        0.3858468104
 Se         2.3115473387       -1.3198431962        4.0017354986
 Se         4.8624545925       -1.8855864388        7.7371297607
 Se        -2.0700877949       -1.9675257511       -6.4603372509
 Se        -0.0447057629       -3.1582708631       -2.8090856920
 Se         2.2343306950       -4.2299664240        0.7817840723
 Se         4.8342987615       -4.9516929708        4.0974643468
 Se        -0.7556003326       -6.2829108386       -5.8406699955
 Se         1.9243057511       -7.4784768035       -2.6074198353
 Se         4.2543989663       -8.3809591814        0.7363809319
 Se         0.0386925703        7.3677075300       -0.4939635450
 Se         2.3791568525        6.5289221229        3.1400383851
 Se         0.0465974103        4.4270318221       -3.5936563407
 Se         2.5167269427        3.6273521599       -0.0581806204
 Se         4.7705604635        2.4670139639        3.1233546104
 Se         0.0435933033        1.9323944164       -6.9695738842
 Se         2.2733127965        0.7623703678       -3.6584263160
 Se         4.3816175435       -0.2841549253       -0.0177063702
 Se         6.9670500347       -1.1290204494        3.5565582379
 Se         2.2410869402       -2.2702007814       -6.6798205275
 Se         4.3723294721       -3.1971869108       -3.2130677403
 Se         6.4331938555       -4.1098532443        0.4136420186
 Se         4.8503033307        7.5509093293       -0.7463548497
 Se         4.8776288797        4.5477652435       -4.0091414448
 Se         7.0830986217        3.5950723552       -0.6434567968
 Se         4.7810064642        1.5273410534       -7.5566303287
 Se         6.9188050062        0.6130038217       -3.7081238627
 Se         9.1066871843       -0.0609359671       -0.0919647969
  C         6.9955771113       -6.9586634775       -2.8583426301
  H         7.7780160969       -7.1271873265       -3.6573399650
  O         5.8389952916       -6.4652991204       -3.1445809228
  O         7.2920676004       -7.2683568805       -1.6893132711
  C         3.3939431960       -6.2668607509       -6.9513074648
  H         4.3245440932       -6.8689211647       -7.0591687882
  O         3.0202466073       -5.7860511295       -5.7843136273
  O         2.6220129789       -6.1746538788       -7.9242101403
  C         6.3116555909       -2.9071154185       -7.4921130606
  H         7.0978863851       -3.7212906458       -7.4285512081
  O         6.0096715894       -2.3219711192       -6.3505932827
  O         5.9403243477       -2.4750431756       -8.6116316973
  C         8.9837561036       -3.3697375837       -3.4349055328
  H         9.9249943929       -3.8864043165       -3.1840078659
  O         8.5659407989       -3.4209184445       -4.6048832464
  O         8.2714489672       -2.6971151254       -2.5207012617
  C         9.7902109758       -4.6282247391        2.1768529346
  H        10.6284324694       -5.3337138149        2.3552924638
  O         9.7484501532       -4.1824896055        0.9942458601
  O         9.0219926648       -4.5705851174        3.1873629795
  C        -2.8252708508       -8.8894178348        5.3653894160
  H        -2.3915771747       -9.8892286280        5.4446685031
  O        -1.9808601030       -7.9304545651        5.0436955975
  O        -4.0908415257       -8.7280019527        5.4030844137
  C         3.0047406823       -8.6887063298        5.2919739424
  H         2.6853413808       -9.0312323512        6.2714246943
  O         1.9985977812       -8.3553887881        4.5599054594
  O         4.2197147413       -8.6069092298        4.9235206312
  C         2.8732291572       -5.7090624943        8.2322507888
  H         2.4095730423       -6.3582442170        8.9295273658
  O         2.2236878889       -4.8031284854        7.6183804854
  O         4.1525405945       -5.8988692439        8.1468427445
  C        -2.5324052264       -5.9090323801        8.5168983878
  H        -2.0058427467       -6.7599986745        9.0204193621
  O        -1.9189018681       -5.2527647032        7.5983339134
  O        -3.6521974131       -5.4981014961        8.8936623702
  C        -6.8661340661        2.3082426882        7.3884767521
  H        -7.2433530482        3.2983326111        7.3747512577
  O        -5.6189307919        2.1553364867        7.5292857639
  O        -7.6694328727        1.3672322100        7.2032576312
  C        -4.1128935570        6.2776012356        7.2258109093
  H        -5.2184092536        6.2949225170        7.4003980339
  O        -3.5215502414        5.2331222329        6.7794929280
  O        -3.5956064510        7.4679880815        7.3184340370
  C        -6.2584500423        7.1467273309        4.0778865765
  H        -7.2018864753        7.1620259062        4.6862261037
  O        -5.8042352338        6.0508881806        3.6277903665
  O        -5.6141473350        8.2227071687        3.8530055117
  C        -9.2670155991        2.9624473135        4.4549609073
  H        -9.7760873251        3.8307467380        4.7753730710
  O        -8.0580447847        3.0137717908        4.1153681461
  O       -10.0869615960        1.9755230626        4.3964141791
  C        -9.5997958208       -3.5202239981        4.2555074891
  H       -10.6284324694       -3.6062117458        4.7363993397
  O        -9.3836198173       -2.7271085544        3.2939504316
  O        -8.6749593009       -4.3055307223        4.7674147240
  C        -5.4063829718       -6.0836320759       -6.1576393485
  H        -6.0390997038       -6.5934387315       -6.8768176703
  O        -5.3157147411       -6.5042627408       -4.9638375967
  O        -4.7997118332       -5.0931497246       -6.6842330004
  C        -7.4812021438       -7.2683192216       -1.8337008205
  H        -7.8430239833       -7.7214409635       -2.7403108931
  O        -6.3847231004       -6.5596142310       -1.8855223803
  O        -8.0870004405       -7.4369608581       -0.7449951352
  C        -9.2637717352       -3.4248031045       -2.1287629167
  H        -9.5435102925       -4.0726156799       -2.9624854104
  O        -8.1685743898       -2.7562864935       -2.2769679175
  O        -9.8293124780       -3.4993302663       -1.0042472880
  C        -6.7198117275       -1.5155721631       -7.0057360974
  H        -7.7266400310       -1.9701098143       -7.1795729881
  O        -6.3208037730       -1.2812141421       -5.7891801227
  O        -6.0546670581       -1.2647410752       -8.0219575549
  C        -1.9610306020        5.6962737072       -7.4797868569
  H        -1.8068881661        6.7616764611       -7.4798700689
  O        -2.4613788677        5.1953402046       -6.4147373301
  O        -1.7592038190        5.0404242691       -8.5376948407
  C        -1.7153677193        9.0065729983       -3.7807068554
  H        -1.3518565997        9.2891789052       -4.8285272378
  O        -1.7735635219        7.7204009534       -3.5311974415
  O        -1.9589811591        9.8892286280       -2.9296575010
  C         2.5176986766        8.6527359013       -4.1276241396
  H         2.7356319561        9.0838176512       -5.0545617483
  O         2.0941304229        7.4607563111       -4.0382054964
  O         2.6632020791        9.4136986823       -3.1567247192
  C         1.7405814703        5.3615037054       -8.2026998584
  H         1.4592813282        6.4433815072       -8.3446733349
  O         2.2712544771        5.0744229803       -7.0359036782
  O         1.5374971892        4.4786315137       -9.0204193621
  C         9.4791869119        2.6134878200        3.9079418032
  H         9.6264681644        3.4611325178        4.5867541287
  O         8.5294682966        2.7206869475        3.0468687327
  O        10.1884170796        1.5361363159        4.0354546634
  C         6.6320899766        7.0427804887        3.3240585285
  H         7.5183451153        7.1103565644        4.0025867163
  O         6.4921259472        6.1579139584        2.4473334656
  O         5.8014508194        7.8970951585        3.5804466065
  C         4.7468288793        5.8510846562        6.9391041765
  H         5.6837062732        5.7110173508        7.4566454645
  O         4.3315486404        4.9881730889        6.0840680113
  O         4.1390624477        6.9214380767        7.1338855679
  C         7.5642974957        1.7429307679        7.1823006621
  H         8.1116275708        2.6102062210        7.6466333920
  O         6.7423080014        2.0330978891        6.2208765696
  O         7.8434776238        0.5800715711        7.5931108165
     227
 i =        1, time =        1.000, E =        -6.3900696931
 Cd        -8.6193380665        0.4796276116        3.4771784492
 Cd        -5.8715519892       -0.2572017853        7.1143863131
 Cd        -8.4082099262       -2.1541426334        0.3852296217
 Cd        -6.8927206820       -3.2917982197        3.9610997129
 Cd        -3.6901803961       -3.7003920922        7.3823564697
 Cd        -6.4419735837       -6.2357425493        0.4642876245
 Cd        -4.3123505317       -6.8296006578        3.9052282166
 Cd        -6.1163781702        3.8609232350        2.9055772487
 Cd        -3.6066232803        2.8812277784        6.5903795929
 Cd        -6.7534160960        1.1872311820       -0.3192192823
 Cd        -4.0444100168        0.0755165167        3.0501714154
 Cd        -1.7741919108       -0.3125863258        6.8335488794
 Cd        -6.3660849925       -1.4624647676       -3.4401660377
 Cd        -4.3613575888       -3.1217779629       -0.1745533795
 Cd        -2.2426050250       -3.6215841919        3.6335994858
 Cd         0.1786846222       -3.9615927212        7.0369257814
 Cd        -4.2693674238       -5.9881939177       -2.9988606357
 Cd        -2.2487254651       -6.7965990875        0.6791699913
 Cd         0.0677789049       -7.3029953697        3.8542330765
 Cd        -4.0802567722        7.4119320988        2.4182830892
 Cd        -1.6107833579        6.4879474936        6.2509360582
 Cd        -4.3325108712        4.8128092194       -0.6769400213
 Cd        -1.8303859819        3.6695973275        3.1589349624
 Cd         0.4898043033        3.1633545214        6.7204988234
 Cd        -4.5995898421        2.0000992627       -4.0890210461
 Cd        -2.1628869706        1.0181318153       -0.4517459739
 Cd         0.1384237395       -0.0681585818        3.1343993604
 Cd         2.6424461223       -0.6635578505        6.8958666891
 Cd        -4.1540592578       -0.5351470267       -6.9611258896
 Cd        -2.2031744334       -1.8490906070       -3.4900341265
 Cd         0.0358056224       -2.8474703240       -0.0250974049
 Cd         2.4397171799       -3.8215683910        3.5304578763
 Cd         4.5938438418       -4.2151924690        6.5946667333
 Cd        -2.6316944192       -4.5699592181       -6.0785328590
 Cd        -0.3609635568       -6.1210236099       -3.0631271537
 Cd         1.9864166246       -6.8523230739       -0.0374537565
 Cd         4.3578790074       -7.5050047747        3.0973836303
 Cd        -2.4320378105        8.2867361577       -1.2003478516
 Cd         0.1211449380        6.7911443035        2.0747613897
 Cd         2.2580861188        6.3879461748        5.9825981826
 Cd        -2.2740236017        5.5405514214       -4.1121205892
 Cd         0.1544598503        4.6148588218       -0.9823187390
 Cd         2.6165097076        3.7533731560        2.4610538212
 Cd         4.3939130908        2.5015200544        5.6447009555
 Cd        -2.3864546252        3.0936884499       -7.5399041060
 Cd        -0.1312613184        1.7709100350       -4.3474093373
 Cd         2.1531501633        0.8600283938       -0.9631955157
 Cd         4.3034702067       -0.4402605935        2.5248349060
 Cd         6.4920139418       -0.6517811674        6.0104984447
 Cd         0.4042396136       -0.5927819118       -7.0621399341
 Cd         2.1512927679       -1.8411000183       -3.9633239125
 Cd         4.1299636411       -2.9780119780       -0.5482290128
 Cd         6.9198129832       -3.7969668554        2.8855575951
 Cd         1.0695399989       -4.7691642498       -6.7906878832
 Cd         3.6506192753       -5.7625028889       -3.6176976496
 Cd         5.7329354088       -6.5639987982       -0.3327569884
 Cd         2.4550920251        8.1223088431       -1.1565975839
 Cd         4.4053397964        7.2898016768        1.7948161328
 Cd         2.3804024181        5.2451934512       -4.8087026737
 Cd         4.8189537531        4.7184587076       -1.4283782805
 Cd         6.7582244170        3.8401567081        2.0311367464
 Cd         2.6217718164        2.7828990396       -7.7033774401
 Cd         4.8492975491        1.7846786220       -4.5231463263
 Cd         6.7276932526        1.0649895533       -0.9630989256
 Cd         8.8867410986        0.4155666473        2.4348051457
 Cd         4.3617770114       -0.9226400509       -7.7309351393
 Cd         6.7427584889       -1.9756139161       -4.2012614848
 Cd         8.5291332582       -2.6207999621       -0.2527743597
 Se        -9.0548441543        0.2429374225        0.9182917557
 Se        -6.3727777029       -0.6564738140        4.4183209284
 Se        -3.9345112497       -1.3489222112        8.2966188079
 Se        -6.5831282376       -3.7425447149        1.3880672563
 Se        -4.5790891350       -4.2748656006        4.8597602740
 Se        -4.6122457596       -7.7766686873        1.5328189839
 Se        -6.6423333590        3.9855764012        0.4576498781
 Se        -4.0719902015        2.6208457793        3.9143251827
 Se        -1.6332977195        2.0117684378        7.9252231101
 Se        -6.7117706276        0.9829526714       -3.1654531988
 Se        -4.4070940510       -0.2111997802        0.3948794079
 Se        -2.0531263506       -1.1153355353        4.2594099147
 Se         0.4059981555       -1.5661406908        8.0651432603
 Se        -4.4160981667       -3.1300271752       -2.8046981999
 Se        -2.2374260392       -4.0915998301        0.9472110852
 Se         0.1530461702       -4.8127519508        4.4858215510
 Se        -2.4165587223       -7.4207019042       -2.0539392537
 Se        -0.0669261799       -7.8792219391        1.3095401580
 Se        -4.5522232733        7.5948604220       -0.0126487553
 Se        -1.8468162977        6.3633159843        3.5401234692
 Se         0.4037139073        5.8261558204        7.5859856722
 Se        -4.4661099022        4.5539852199       -3.3489599411
 Se        -2.0809909724        3.7152484346        0.3431812420
 Se         0.4982507633        2.6969855788        3.7287116874
 Se         2.7718052138        1.9958812275        7.6262881116
 Se        -4.6132630401        2.0747956533       -6.9049236541
 Se        -2.2789104860        0.8535275118       -3.1261060469
 Se         0.0145690692       -0.1632243829        0.3854049901
 Se         2.3129708386       -1.3188999343        3.9990530054
 Se         4.8631765360       -1.8842944234        7.7354857165
 Se        -2.0701840920       -1.9664269388       -6.4603967086
 Se        -0.0447005432       -3.1599615181       -2.8087920846
 Se         2.2323218267       -4.2314820592        0.7809463660
 Se         4.8362512657       -4.9531285987        4.0967253139
 Se        -0.7551480065       -6.2849162765       -5.8413986175
 Se         1.9250178601       -7.4791189246       -2.6076598253
 Se         4.2593557203       -8.3792757070        0.7363684907
 Se         0.0356261379        7.3686487189       -0.4913637299
 Se         2.3809484086        6.5252175446        3.1425317069
 Se         0.0437375475        4.4288433750       -3.5940257571
 Se         2.5164055761        3.6274358487       -0.0568926635
 Se         4.7727377199        2.4661632517        3.1253175557
 Se         0.0455167812        1.9300269935       -6.9705562722
 Se         2.2758601046        0.7648636219       -3.6570816401
 Se         4.3766829016       -0.2853631044       -0.0178446080
 Se         6.9677362108       -1.1294380356        3.5582162398
 Se         2.2370507235       -2.2682342948       -6.6837877369
 Se         4.3737747166       -3.1974978649       -3.2156864508
 Se         6.4331604954       -4.1116991599        0.4129243154
 Se         4.8516418546        7.5524295792       -0.7459602809
 Se         4.8775199647        4.5490069016       -4.0122872689
 Se         7.0856583516        3.5935044803       -0.6429091971
 Se         4.7817846223        1.5264673198       -7.5555524562
 Se         6.9186371829        0.6112238752       -3.7073774713
 Se         9.1069233655       -0.0626724733       -0.0923745857
  C         6.9966812197       -6.9498556950       -2.8612688260
  H         7.7649322095       -7.1224747738       -3.6684216540
  O         5.8441242971       -6.4672805551       -3.1400982681
  O         7.2887574922       -7.2742496009       -1.6938030557
  C         3.3950588214       -6.2673147765       -6.9491894814
  H         4.3444066225       -6.8936096686       -7.0753272229
  O         3.0188619862       -5.7909529884       -5.7821559494
  O         2.6177883777       -6.1689918382       -7.9240458011
  C         6.3106282484       -2.9078453996       -7.4910731700
  H         7.1299137504       -3.7048862282       -7.4466889051
  O         6.0085402803       -2.3182434459       -6.3475664059
  O         5.9394451451       -2.4743169089       -8.6125191562
  C         8.9774608684       -3.3708775545       -3.4296549627
  H         9.9250180562       -3.8774829974       -3.1826003730
  O         8.5683733155       -3.4149459010       -4.6046501098
  O         8.2717990471       -2.6967274326       -2.5201529699
  C         9.7980864817       -4.6252055469        2.1810027861
  H        10.6408655401       -5.3318691344        2.3887999993
  O         9.7472275317       -4.1805989828        0.9926596269
  O         9.0287931242       -4.5682051512        3.1870775232
  C        -2.8217358501       -8.8884506324        5.3598596501
  H        -2.4154187803       -9.9024293192        5.4343946394
  O        -1.9847837108       -7.9306948959        5.0423809994
  O        -4.0904631807       -8.7275238423        5.4044762785
  C         2.9969251396       -8.6916357143        5.2874245897
  H         2.6967725338       -9.0398269484        6.2934215078
  O         1.9994416920       -8.3579588723        4.5594783883
  O         4.2233490375       -8.6008087035        4.9158396875
  C         2.8793109881       -5.7053261125        8.2324380652
  H         2.3955873073       -6.3773024893        8.9303283437
  O         2.2191011076       -4.8089136723        7.6164322932
  O         4.1498191872       -5.9035825854        8.1537088530
  C        -2.5347163232       -5.9173463556        8.5220220443
  H        -2.0052498086       -6.7390725628        9.0096019785
  O        -1.9213682352       -5.2584591124        7.5983697591
  O        -3.6522428971       -5.5085133838        8.8928601775
  C        -6.8630706203        2.3027039142        7.3892243194
  H        -7.2086193538        3.3071349018        7.3885257928
  O        -5.6214151158        2.1591502625        7.5337839848
  O        -7.6696362781        1.3703343502        7.1999669072
  C        -4.1169923058        6.2828122144        7.2282038817
  H        -5.2418933127        6.2896177269        7.3832000201
  O        -3.5267888141        5.2290965264        6.7738918839
  O        -3.5911568701        7.4673728143        7.3181065207
  C        -6.2567491617        7.1462545564        4.0780880639
  H        -7.2111390447        7.1649409639        4.6689854642
  O        -5.8090915035        6.0479613768        3.6279460535
  O        -5.6129262385        8.2208177083        3.8488596387
  C        -9.2742349389        2.9617651551        4.4604727509
  H        -9.7855372140        3.8838940690        4.7760086716
  O        -8.0588935734        3.0119111606        4.1193232695
  O       -10.0812275838        1.9793889132        4.3922656913
  C        -9.6032898285       -3.5282259348        4.2551730202
  H       -10.5971720209       -3.6001750875        4.7566807035
  O        -9.3833682245       -2.7227984195        3.2942787332
  O        -8.6788382824       -4.3018199840        4.7630887200
  C        -5.4081380557       -6.0792439373       -6.1562052338
  H        -6.0546960796       -6.5859836395       -6.8890942905
  O        -5.3111361549       -6.5041565019       -4.9653536951
  O        -4.7985591293       -5.0927887623       -6.6853640445
  C        -7.4875002458       -7.2705893968       -1.8347914114
  H        -7.8388434959       -7.7173330376       -2.7530342297
  O        -6.3888122055       -6.5550403959       -1.8843869046
  O        -8.0717875121       -7.4409861377       -0.7458983202
  C        -9.2562931308       -3.4269924750       -2.1219806473
  H        -9.5270787848       -4.0663584857       -2.9594189931
  O        -8.1698851330       -2.7554430706       -2.2727171014
  O        -9.8243004848       -3.4940244457       -1.0092691580
  C        -6.7207160246       -1.5101346697       -7.0046114691
  H        -7.7450574417       -1.9674181007       -7.1698505571
  O        -6.3198913460       -1.2781283308       -5.7991462708
  O        -6.0634627783       -1.2635202294       -8.0156083645
  C        -1.9629200751        5.6954930032       -7.4853289658
  H        -1.7770888886        6.7764005651       -7.4923242406
  O        -2.4612068937        5.1868078550       -6.4088065088
  O        -1.7563557099        5.0406013165       -8.5284612838
  C        -1.7169055989        9.0075230705       -3.7839126367
  H        -1.3493405476        9.2660238074       -4.8465614694
  O        -1.7700148195        7.7196219305       -3.5246744750
  O        -1.9637368367        9.8896689283       -2.9409261053
  C         2.5062511330        8.6538997967       -4.1272903639
  H         2.7131102182        9.0638249498       -5.0476060874
  O         2.0944571747        7.4533660185       -4.0307022750
  O         2.6627706193        9.4112360553       -3.1553437980
  C         1.7411735994        5.3672444989       -8.1968788130
  H         1.4358383610        6.4416008070       -8.3632925476
  O         2.2781437222        5.0766927284       -7.0409347784
  O         1.5311978392        4.4834497483       -9.0176616908
  C         9.4769061630        2.6096303286        3.8999931641
  H         9.6131090334        3.4671477718        4.5843902861
  O         8.5281100555        2.7173857974        3.0492675860
  O        10.1886323197        1.5402186238        4.0331952140
  C         6.6326689745        7.0383228448        3.3281954431
  H         7.5082674956        7.1289998248        4.0070788575
  O         6.4945561905        6.1605063593        2.4466001885
  O         5.7955857878        7.9030606743        3.5813978676
  C         4.7447621747        5.8524909633        6.9354161095
  H         5.7085862008        5.7040540943        7.4370666698
  O         4.3286584825        4.9885827644        6.0815572916
  O         4.1458434331        6.9224627382        7.1372874807
  C         7.5603419781        1.7452800837        7.1879033157
  H         8.1158840311        2.6116602203        7.6593692779
  O         6.7459530908        2.0302658665        6.2244934579
  O         7.8435727683        0.5822043421        7.5896089742
     227
 i =        2, time =        2.000, E =        -6.4057036670
 Cd        -8.6169800294        0.4782588526        3.4768016164
 Cd        -5.8708290601       -0.2576821162        7.1136088049
 Cd        -8.4088428358       -2.1552060786        0.3836545756
 Cd        -6.8896598489       -3.2938914539        3.9621636872