     227
 i =        0, time =        0.000, E =       -19.0577775792
 Cd        -8.6216924880        0.4810107428        3.4775887729
 Cd        -5.8723589632       -0.2566559957        7.1151373767
 Cd        -8.4076147924       -2.1531404527        0.3867588804
 Cd        -6.8957642261       -3.2896665849        3.9600318291
 Cd        -3.6930098048       -3.6992689615        7.3819491709
 Cd        -6.4429261463       -6.2347087238        0.4622469067
 Cd        -4.3123952394       -6.8285875372        3.9039095072
 Cd        -6.1141073353        3.8626235599        2.9066844924
 Cd        -3.6048790416        2.8797284733        6.5917986711
 Cd        -6.7531255596        1.1841266196       -0.3182182747
 Cd        -4.0437606329        0.0729837467        3.0511954168
 Cd        -1.7753257667       -0.3121054857        6.8316599018
 Cd        -6.3661028473       -1.4630135273       -3.4383357626
 Cd        -4.3602814436       -3.1214810613       -0.1759283953
 Cd        -2.2424276819       -3.6242998489        3.6335413818
 Cd         0.1757294635       -3.9625201566        7.0364714760
 Cd        -4.2692200317       -5.9860442556       -3.0005266361
 Cd        -2.2482225396       -6.7972628816        0.6786391664
 Cd         0.0669003827       -7.3030327295        3.8545421700
 Cd        -4.0792754193        7.4105475565        2.4175118797
 Cd        -1.6116442377        6.4880648240        6.2478272306
 Cd        -4.3308002626        4.8127262164       -0.6762739309
 Cd        -1.8326132452        3.6694977750        3.1598212265
 Cd         0.4939817277        3.1637060931        6.7202662426
 Cd        -4.5980154021        1.9988297698       -4.0880170010
 Cd        -2.1651194586        1.0165564496       -0.4536921834
 Cd         0.1376109507       -0.0659106884        3.1336818174
 Cd         2.6419074521       -0.6636939286        6.8958319365
 Cd        -4.1515129292       -0.5348426091       -6.9620217917
 Cd        -2.2012490343       -1.8491984656       -3.4894107829
 Cd         0.0359311218       -2.8494155653       -0.0264680683
 Cd         2.4407298775       -3.8224684908        3.5289587884
 Cd         4.5907434619       -4.2169180472        6.5928471603
 Cd        -2.6321953796       -4.5685798778       -6.0773989300
 Cd        -0.3638438279       -6.1221236347       -3.0620735359
 Cd         1.9882729153       -6.8506852632       -0.0376753302
 Cd         4.3604701588       -7.5063202656        3.0981086138
 Cd        -2.4313710890        8.2839908015       -1.2010761441
 Cd         0.1210964618        6.7915494583        2.0748938605
 Cd         2.2602783261        6.3879934074        5.9824457591
 Cd        -2.2743307721        5.5403016700       -4.1096429978
 Cd         0.1552258413        4.6164378819       -0.9814446932
 Cd         2.6173372932        3.7540356816        2.4616712460
 Cd         4.3934694910        2.5024270436        5.6448470259
 Cd        -2.3839877703        3.0961459608       -7.5397423510
 Cd        -0.1308699873        1.7716472388       -4.3458913396
 Cd         2.1522040622        0.8595996928       -0.9600505658
 Cd         4.3027041934       -0.4425155449        2.5248589789
 Cd         6.4943132815       -0.6514444341        6.0110723312
 Cd         0.4032906214       -0.5920449882       -7.0625722312
 Cd         2.1504065746       -1.8410095193       -3.9631978812
 Cd         4.1282053355       -2.9764966895       -0.5499119195
 Cd         6.9189885741       -3.8001688729        2.8840486736
 Cd         1.0693858855       -4.7693596381       -6.7909688629
 Cd         3.6529341800       -5.7620820022       -3.6150795142
 Cd         5.7341856059       -6.5625995016       -0.3323817960
 Cd         2.4532379782        8.1225833618       -1.1556872380
 Cd         4.4025673150        7.2904811152        1.7928276254
 Cd         2.3800547108        5.2453457502       -4.8107637235
 Cd         4.8184663347        4.7191125514       -1.4277792117
 Cd         6.7589411702        3.8390778732        2.0295448973
 Cd         2.6210634084        2.7844913241       -7.7035228004
 Cd         4.8495943395        1.7843685348       -4.5225056138
 Cd         6.7261500983        1.0662237140       -0.9642295531
 Cd         8.8881450478        0.4141445330        2.4369093904
 Cd         4.3615782352       -0.9213178924       -7.7328888960
 Cd         6.7438649008       -1.9767569930       -4.2031112584
 Cd         8.5272445020       -2.6218905711       -0.2551455218
 Se        -9.0557725106        0.2424574140        0.9180313808
 Se        -6.3745872764       -0.6570220647        4.4225742627
 Se        -3.9358548519       -1.3506397678        8.2925868769
 Se        -6.5830028390       -3.7408669090        1.3890860046
 Se        -4.5802302415       -4.2716541219        4.8585926421
 Se        -4.6110671623       -7.7792240778        1.5343213278
 Se        -6.6407812351        3.9866809498        0.4586064126
 Se        -4.0705866514        2.6241591830        3.9150270775
 Se        -1.6315747320        2.0143859544        7.9219454430
 Se        -6.7106235468        0.9827493806       -3.1628202938
 Se        -4.4077684895       -0.2106461950        0.3970531668
 Se        -2.0534879979       -1.1190641497        4.2604482105
 Se         0.4069246601       -1.5676855049        8.0617057342
 Se        -4.4126107232       -3.1307459794       -2.8028288282
 Se        -2.2371864822       -4.0884616040        0.9473336128
 Se         0.1541797359       -4.8148952714        4.4843326207
 Se        -2.4147106009       -7.4199706225       -2.0529393442
 Se        -0.0662571417       -7.8800811154        1.3078284855
 Se        -4.5519687636        7.5920037884       -0.0122560791
 Se        -1.8482840651        6.3647212661        3.5390459072
 Se         0.4006735392        5.8241498358        7.5878867146
 Se        -4.4655945585        4.5529209660       -3.3484418515
 Se        -2.0798083538        3.7153034916        0.3451575142
 Se         0.4973892782        2.6967113851        3.7286137790
 Se         2.7724753484        1.9958260876        7.6298945277
 Se        -4.6126224962        2.0736182894       -6.9031574659
 Se        -2.2770211290        0.8531533747       -3.1284312065
 Se         0.0138865169       -0.1636477002        0.3858468104
 Se         2.3115473387       -1.3198431962        4.0017354986
 Se         4.8624545925       -1.8855864388        7.7371297607
 Se        -2.0700877949       -1.9675257511       -6.4603372509
 Se        -0.0447057629       -3.1582708631       -2.8090856920
 Se         2.2343306950       -4.2299664240        0.7817840723
 Se         4.8342987615       -4.9516929708        4.0974643468
 Se        -0.7556003326       -6.2829108386       -5.8406699955
 Se         1.9243057511       -7.4784768035       -2.6074198353
 Se         4.2543989663       -8.3809591814        0.7363809319
 Se         0.0386925703        7.3677075300       -0.4939635450
 Se         2.3791568525        6.5289221229        3.1400383851
 Se         0.0465974103        4.4270318221       -3.5936563407
 Se         2.5167269427        3.6273521599       -0.0581806204
 Se         4.7705604635        2.4670139639        3.1233546104
 Se         0.0435933033        1.9323944164       -6.9695738842
 Se         2.2733127965        0.7623703678       -3.6584263160
 Se         4.3816175435       -0.2841549253       -0.0177063702
 Se         6.9670500347       -1.1290204494        3.5565582379
 Se         2.2410869402       -2.2702007814       -6.6798205275
 Se         4.3723294721       -3.1971869108       -3.2130677403
 Se         6.4331938555       -4.1098532443        0.4136420186
 Se         4.8503033307        7.5509093293       -0.7463548497
 Se         4.8776288797        4.5477652435       -4.0091414448
 Se         7.0830986217        3.5950723552       -0.6434567968
 Se         4.7810064642        1.5273410534       -7.5566303287
 Se         6.9188050062        0.6130038217       -3.7081238627
 Se         9.1066871843       -0.0609359671       -0.0919647969
  C         6.9955771113       -6.9586634775       -2.8583426301
  H         7.7780160969       -7.1271873265       -3.6573399650
  O         5.8389952916       -6.4652991204       -3.1445809228
  O         7.2920676004       -7.2683568805       -1.6893132711
  C         3.3939431960       -6.2668607509       -6.9513074648
  H         4.3245440932       -6.8689211647       -7.0591687882
  O         3.0202466073       -5.7860511295       -5.7843136273
  O         2.6220129789       -6.1746538788       -7.9242101403
  C         6.3116555909       -2.9071154185       -7.4921130606
  H         7.0978863851       -3.7212906458       -7.4285512081
  O         6.0096715894       -2.3219711192       -6.3505932827
  O         5.9403243477       -2.4750431756       -8.6116316973
  C         8.9837561036       -3.3697375837       -3.4349055328
  H         9.9249943929       -3.8864043165       -3.1840078659
  O         8.5659407989       -3.4209184445       -4.6048832464
  O         8.2714489672       -2.6971151254       -2.5207012617
  C         9.7902109758       -4.6282247391        2.1768529346
  H        10.6284324694       -5.3337138149        2.3552924638
  O         9.7484501532       -4.1824896055        0.9942458601
  O         9.0219926648       -4.5705851174        3.1873629795
  C        -2.8252708508       -8.8894178348        5.3653894160
  H        -2.3915771747       -9.8892286280        5.4446685031
  O        -1.9808601030       -7.9304545651        5.0436955975
  O        -4.0908415257       -8.7280019527        5.4030844137
  C         3.0047406823       -8.6887063298        5.2919739424
  H         2.6853413808       -9.0312323512        6.2714246943
  O         1.9985977812       -8.3553887881        4.5599054594
  O         4.2197147413       -8.6069092298        4.9235206312
  C         2.8732291572       -5.7090624943        8.2322507888
  H         2.4095730423       -6.3582442170        8.9295273658
  O         2.2236878889       -4.8031284854        7.6183804854
  O         4.1525405945       -5.8988692439        8.1468427445
  C        -2.5324052264       -5.9090323801        8.5168983878
  H        -2.0058427467       -6.7599986745        9.0204193621
  O        -1.9189018681       -5.2527647032        7.5983339134
  O        -3.6521974131       -5.4981014961        8.8936623702
  C        -6.8661340661        2.3082426882        7.3884767521
  H        -7.2433530482        3.2983326111        7.3747512577
  O        -5.6189307919        2.1553364867        7.5292857639
  O        -7.6694328727        1.3672322100        7.2032576312
  C        -4.1128935570        6.2776012356        7.2258109093
  H        -5.2184092536        6.2949225170        7.4003980339
  O        -3.5215502414        5.2331222329        6.7794929280
  O        -3.5956064510        7.4679880815        7.3184340370
  C        -6.2584500423        7.1467273309        4.0778865765
  H        -7.2018864753        7.1620259062        4.6862261037
  O        -5.8042352338        6.0508881806        3.6277903665
  O        -5.6141473350        8.2227071687        3.8530055117
  C        -9.2670155991        2.9624473135        4.4549609073
  H        -9.7760873251        3.8307467380        4.7753730710
  O        -8.0580447847        3.0137717908        4.1153681461
  O       -10.0869615960        1.9755230626        4.3964141791
  C        -9.5997958208       -3.5202239981        4.2555074891
  H       -10.6284324694       -3.6062117458        4.7363993397
  O        -9.3836198173       -2.7271085544        3.2939504316
  O        -8.6749593009       -4.3055307223        4.7674147240
  C        -5.4063829718       -6.0836320759       -6.1576393485
  H        -6.0390997038       -6.5934387315       -6.8768176703
  O        -5.3157147411       -6.5042627408       -4.9638375967
  O        -4.7997118332       -5.0931497246       -6.6842330004
  C        -7.4812021438       -7.2683192216       -1.8337008205
  H        -7.8430239833       -7.7214409635       -2.7403108931
  O        -6.3847231004       -6.5596142310       -1.8855223803
  O        -8.0870004405       -7.4369608581       -0.7449951352
  C        -9.2637717352       -3.4248031045       -2.1287629167
  H        -9.5435102925       -4.0726156799       -2.9624854104
  O        -8.1685743898       -2.7562864935       -2.2769679175
  O        -9.8293124780       -3.4993302663       -1.0042472880
  C        -6.7198117275       -1.5155721631       -7.0057360974
  H        -7.7266400310       -1.9701098143       -7.1795729881
  O        -6.3208037730       -1.2812141421       -5.7891801227
  O        -6.0546670581       -1.2647410752       -8.0219575549
  C        -1.9610306020        5.6962737072       -7.4797868569
  H        -1.8068881661        6.7616764611       -7.4798700689
  O        -2.4613788677        5.1953402046       -6.4147373301
  O        -1.7592038190        5.0404242691       -8.5376948407
  C        -1.7153677193        9.0065729983       -3.7807068554
  H        -1.3518565997        9.2891789052       -4.8285272378
  O        -1.7735635219        7.7204009534       -3.5311974415
  O        -1.9589811591        9.8892286280       -2.9296575010
  C         2.5176986766        8.6527359013       -4.1276241396
  H         2.7356319561        9.0838176512       -5.0545617483
  O         2.0941304229        7.4607563111       -4.0382054964
  O         2.6632020791        9.4136986823       -3.1567247192
  C         1.7405814703        5.3615037054       -8.2026998584
  H         1.4592813282        6.4433815072       -8.3446733349
  O         2.2712544771        5.0744229803       -7.0359036782
  O         1.5374971892        4.4786315137       -9.0204193621
  C         9.4791869119        2.6134878200        3.9079418032
  H         9.6264681644        3.4611325178        4.5867541287
  O         8.5294682966        2.7206869475        3.0468687327
  O        10.1884170796        1.5361363159        4.0354546634
  C         6.6320899766        7.0427804887        3.3240585285
  H         7.5183451153        7.1103565644        4.0025867163
  O         6.4921259472        6.1579139584        2.4473334656
  O         5.8014508194        7.8970951585        3.5804466065
  C         4.7468288793        5.8510846562        6.9391041765
  H         5.6837062732        5.7110173508        7.4566454645
  O         4.3315486404        4.9881730889        6.0840680113
  O         4.1390624477        6.9214380767        7.1338855679
  C         7.5642974957        1.7429307679        7.1823006621
  H         8.1116275708        2.6102062210        7.6466333920
  O         6.7423080014        2.0330978891        6.2208765696
  O         7.8434776238        0.5800715711        7.5931108165
     227
 i =        1, time =        1.000, E =       -19.0674033382
 Cd        -8.6193477956        0.4796584028        3.4771634745
 Cd        -5.8715256776       -0.2571819185        7.1144064562
 Cd        -8.4082333689       -2.1541338036        0.3852338044
 Cd        -6.8927414648       -3.2918135398        3.9610929011
 Cd        -3.6901773347       -3.7003936518        7.3824021941
 Cd        -6.4419803563       -6.2357710715        0.4642610295
 Cd        -4.3123523849       -6.8296406057        3.9052153031
 Cd        -6.1163894761        3.8609364220        2.9055576249
 Cd        -3.6066247522        2.8812323642        6.5904283297
 Cd        -6.7534396516        1.1872415698       -0.3192271685
 Cd        -4.0444290548        0.0755196575        3.0501931314
 Cd        -1.7741831417       -0.3125679135        6.8336077602
 Cd        -6.3661058593       -1.4624166390       -3.4401809382
 Cd        -4.3613484664       -3.1217885822       -0.1745530390
 Cd        -2.2426165208       -3.6215612343        3.6336170076
 Cd         0.1787191182       -3.9615914757        7.0369477557
 Cd        -4.2693806114       -5.9882541872       -2.9988691983
 Cd        -2.2486945972       -6.7966455964        0.6791624049
 Cd         0.0677937577       -7.3029961410        3.8542310344
 Cd        -4.0803229531        7.4119335438        2.4182616781
 Cd        -1.6107918565        6.4879193408        6.2509870767
 Cd        -4.3325508045        4.8128095869       -0.6769614587
 Cd        -1.8304050894        3.6695963590        3.1589466052
 Cd         0.4898061386        3.1633324964        6.7205608439
 Cd        -4.5996593959        2.0001210383       -4.0890063199
 Cd        -2.1629019765        1.0181237456       -0.4517618001
 Cd         0.1384347655       -0.0681757027        3.1344253451
 Cd         2.6424406343       -0.6635624175        6.8959340016
 Cd        -4.1541033794       -0.5351547840       -6.9611337106
 Cd        -2.2031848332       -1.8491067470       -3.4900260836
 Cd         0.0358077818       -2.8475011578       -0.0251000999
 Cd         2.4397091820       -3.8215507335        3.5304710216
 Cd         4.5938306559       -4.2152047742        6.5946960377
 Cd        -2.6316978936       -4.5699929452       -6.0785560414
 Cd        -0.3609687371       -6.1210933450       -3.0631390158
 Cd         1.9863995962       -6.8523683503       -0.0374667035
 Cd         4.3578608625       -7.5050739006        3.0974153403
 Cd        -2.4320605692        8.2867278971       -1.2003737450
 Cd         0.1211454454        6.7911462881        2.0748030923
 Cd         2.2581196287        6.3879328193        5.9826775114
 Cd        -2.2740462267        5.5405483570       -4.1121340110
 Cd         0.1544573062        4.6148734489       -0.9823577050
 Cd         2.6165314267        3.7533451730        2.4610179032
 Cd         4.3939361634        2.5015422086        5.6447006733
 Cd        -2.3864888189        3.0937444289       -7.5398884466
 Cd        -0.1312642389        1.7709371042       -4.3474270906
 Cd         2.1531906635        0.8600233207       -0.9632101621
 Cd         4.3034771570       -0.4402523031        2.5247999161
 Cd         6.4920419674       -0.6517723155        6.0104955905
 Cd         0.4042675723       -0.5927809169       -7.0621302935
 Cd         2.1513304632       -1.8411011270       -3.9633417922
 Cd         4.1299927624       -2.9780279199       -0.5482377755
 Cd         6.9198298736       -3.7969831280        2.8855187122
 Cd         1.0695794266       -4.7692312037       -6.7906646285
 Cd         3.6506427165       -5.7625299539       -3.6177334758
 Cd         5.7329872636       -6.5640411028       -0.3327950315
 Cd         2.4551328187        8.1223003586       -1.1566427939
 Cd         4.4053702044        7.2897898717        1.7948411472
 Cd         2.3804094210        5.2452303645       -4.8087338209
 Cd         4.8190046033        4.7184596231       -1.4284274181
 Cd         6.7582457597        3.8401517059        2.0311472974
 Cd         2.6218061552        2.7829249470       -7.7033815389
 Cd         4.8493743666        1.7846700219       -4.5231253605
 Cd         6.7277431739        1.0650291529       -0.9631230806
 Cd         8.8867463251        0.4155913470        2.4347931409
 Cd         4.3618307682       -0.9226164533       -7.7309129556
 Cd         6.7427927617       -1.9756257640       -4.2012744994
 Cd         8.5291335251       -2.6208092005       -0.2528088312
 Se        -9.0547169543        0.2428399530        0.9183339887
 Se        -6.3727441858       -0.6565077923        4.4182969877
 Se        -3.9345492633       -1.3489678344        8.2964567371
 Se        -6.5831054699       -3.7425299885        1.3880751091
 Se        -4.5790532945       -4.2748365788        4.8597145819
 Se        -4.6122229305       -7.7765075278        1.5328598443
 Se        -6.6422053118        3.9855390584        0.4577305027
 Se        -4.0719245052        2.6208441595        3.9142707217
 Se        -1.6333346624        2.0117280286        7.9250277111
 Se        -6.7116058843        0.9828599693       -3.1654511097
 Se        -4.4070444961       -0.2111810960        0.3949106128
 Se        -2.0531297894       -1.1153493183        4.2593617826
 Se         0.4060013278       -1.5661759143        8.0650090210
 Se        -4.4160393934       -3.1299604436       -2.8046441587
 Se        -2.2374495791       -4.0915734389        0.9472033916
 Se         0.1530650790       -4.8127444274        4.4857812882
 Se        -2.4165707935       -7.4205308397       -2.0539603681
 Se        -0.0669710214       -7.8790597530        1.3095547041
 Se        -4.5520445053        7.5948230604       -0.0125683958
 Se        -1.8467095842        6.3632903046        3.5400373651
 Se         0.4036946357        5.8261681464        7.5857803058
 Se        -4.4659671963        4.5539418823       -3.3489380079
 Se        -2.0809654598        3.7152463644        0.3431657052
 Se         0.4982027446        2.6970161735        3.7286557735
 Se         2.7717823505        1.9958524049        7.6261253274
 Se        -4.6131023297        2.0747356843       -6.9048953508
 Se        -2.2788630086        0.8535022754       -3.1260979681
 Se         0.0145490500       -0.1632250817        0.3853941830
 Se         2.3129769367       -1.3189313229        3.9989744564
 Se         4.8631387606       -1.8843120197        7.7353263157
 Se        -2.0702230579       -1.9664060295       -6.4603587825
 Se        -0.0447408955       -3.1598966015       -2.8087834144
 Se         2.2323239918       -4.2314282457        0.7809265887
 Se         4.8362259674       -4.9530596780        4.0967197381
 Se        -0.7551518473       -6.2847312496       -5.8413886316
 Se         1.9250022037       -7.4789612897       -2.6075945447
 Se         4.2593741899       -8.3791035704        0.7364372966
 Se         0.0356641529        7.3685888367       -0.4912792809
 Se         2.3808828805        6.5252149540        3.1424271594
 Se         0.0437111802        4.4287985835       -3.5939766297
 Se         2.5163592999        3.6274466502       -0.0568073991
 Se         4.7726626998        2.4661940763        3.1253376271
 Se         0.0455207615        1.9298914159       -6.9704600357
 Se         2.2757882369        0.7648109007       -3.6570417706
 Se         4.3766173293       -0.2853757227       -0.0177704205
 Se         6.9676868158       -1.1294468146        3.5582598603
 Se         2.2369330997       -2.2681216919       -6.6837541445
 Se         4.3736790855       -3.1974753151       -3.2156222386
 Se         6.4331187268       -4.1116733990        0.4130144012
 Se         4.8514561704        7.5524028063       -0.7458663428
 Se         4.8774274283        4.5489551662       -4.0121890529
 Se         7.0855250534        3.5934249111       -0.6428661900
 Se         4.7816094453        1.5263902979       -7.5555393898
 Se         6.9184781441        0.6112218300       -3.7073503026
 Se         9.1068221630       -0.0627238562       -0.0922779401
  C         6.9966691327       -6.9497896549       -2.8612718861
  H         7.7649322095       -7.1224747738       -3.6684216540
  O         5.8438738133       -6.4671939782       -3.1400429340
  O         7.2883518078       -7.2740314196       -1.6934686246
  C         3.3950882240       -6.2672786255       -6.9491537408
  H         4.3444066225       -6.8936096686       -7.0753272229
  O         3.0187865081       -5.7907991225       -5.7818654487
  O         2.6176169349       -6.1687947231       -7.9239059697
  C         6.3106269704       -2.9078675571       -7.4909989906
  H         7.1299137504       -3.7048862282       -7.4466889051
  O         6.0085271719       -2.3181146783       -6.3473563125
  O         5.9392413723       -2.4741402642       -8.6123921904
  C         8.9774078661       -3.3708909102       -3.4296289919
  H         9.9250180562       -3.8774829974       -3.1826003730
  O         8.5681374193       -3.4147789820       -4.6045660334
  O         8.2716363727       -2.6966835475       -2.5199801225
  C         9.7980363731       -4.6251858836        2.1809829092
  H        10.6408655401       -5.3318691344        2.3887999993
  O         9.7470173335       -4.1803836649        0.9925525203
  O         9.0283908198       -4.5680392844        3.1870136150
  C        -2.8217158690       -8.8883981954        5.3598599946
  H        -2.4154187803       -9.9024293192        5.4343946394
  O        -1.9847128069       -7.9305750545        5.0422529735
  O        -4.0904526285       -8.7273004140        5.4043330139
  C         2.9969113040       -8.6915804058        5.2874331560
  H         2.6967725338       -9.0398269484        6.2934215078
  O         1.9992669160       -8.3577554954        4.5593635022
  O         4.2233697152       -8.6004283584        4.9152607161
  C         2.8792830840       -5.7053297400        8.2323952699
  H         2.3955873073       -6.3773024893        8.9303283437
  O         2.2189098406       -4.8087681749        7.6162306663
  O         4.1498435136       -5.9033579325        8.1534519882
  C        -2.5347034222       -5.9173526599        8.5219582715
  H        -2.0052498086       -6.7390725628        9.0096019785
  O        -1.9214383028       -5.2581848666        7.5982993634
  O        -3.6522369355       -5.5082829530        8.8926314267
  C        -6.8630597155        2.3027124839        7.3891515820
  H        -7.2086193538        3.3071349018        7.3885257928
  O        -5.6212039644        2.1590479878        7.5335993306
  O        -7.6694237723        1.3701776938        7.1999408627
  C        -4.1170095603        6.2827794804        7.2281533955
  H        -5.2418933127        6.2896177269        7.3832000201
  O        -3.5265614736        5.2289872508        6.7737639750
  O        -3.5909670466        7.4672608692        7.3179621351
  C        -6.2567242949        7.1462096190        4.0781067600
  H        -7.2111390447        7.1649409639        4.6689854642
  O        -5.8089713368        6.0477914051        3.6278082418
  O        -5.6125949257        8.2206129323        3.8486017251
  C        -9.2741782627        2.9617332395        4.4604900468
  H        -9.7855372140        3.8838940690        4.7760086716
  O        -8.0587377140        3.0118731923        4.1192231077
  O       -10.0809574418        1.9791402165        4.3921372636
  C        -9.6032510435       -3.5282040041        4.2551499688
  H       -10.5971720209       -3.6001750875        4.7566807035
  O        -9.3831689894       -2.7227657076        3.2942835493
  O        -8.6784221044       -4.3015698829        4.7629031525
  C        -5.4081388338       -6.0792062431       -6.1561649815
  H        -6.0546960796       -6.5859836395       -6.8890942905
  O        -5.3109207581       -6.5039954835       -4.9650644112
  O        -4.7982508577       -5.0926915600       -6.6852305763
  C        -7.4874758717       -7.2705288485       -1.8348016620
  H        -7.8388434959       -7.7173330376       -2.7530342297
  O        -6.3886667020       -6.5549065847       -1.8842029168
  O        -8.0715667671       -7.4408071017       -0.7457447218
  C        -9.2562377073       -3.4270134027       -2.1219628693
  H        -9.5270787848       -4.0663584857       -2.9594189931
  O        -8.1697521158       -2.7553520091       -2.2726663135
  O        -9.8241117793       -3.4938956668       -1.0091394943
  C        -6.7206937014       -1.5101707315       -7.0045715892
  H        -7.7450574417       -1.9674181007       -7.1698505571
  O        -6.3197081573       -1.2781499763       -5.7989403862
  O        -6.0631516965       -1.2634448140       -8.0154196618
  C        -1.9628789992        5.6954835836       -7.4852902853
  H        -1.7770888886        6.7764005651       -7.4923242406
  O        -2.4611218829        5.1866259490       -6.4086557798
  O        -1.7564493450        5.0402489279       -8.5282377644
  C        -1.7168651475        9.0074780680       -3.7839170185
  H        -1.3493405476        9.2660238074       -4.8465614694
  O        -1.7701315198        7.7193681269       -3.5245709347
  O        -1.9637756338        9.8894557348       -2.9407235428
  C         2.5062158292        8.6538607570       -4.1272911451
  H         2.7131102182        9.0638249498       -5.0476060874
  O         2.0944687768        7.4531347993       -4.0307183585
  O         2.6627084818        9.4110899819       -3.1551245727
  C         1.7411258807        5.3672392367       -8.1968413994
  H         1.4358383610        6.4416008070       -8.3632925476
  O         2.2781614999        5.0764873048       -7.0405625686
  O         1.5313285590        4.4832546787       -9.0174745117
  C         9.4768376001        2.6096223614        3.9000119587
  H         9.6131090334        3.4671477718        4.5843902861
  O         8.5279116140        2.7173095938        3.0491138455
  O        10.1884355362        1.5400724069        4.0329820503
  C         6.6326435621        7.0382708628        3.3282175281
  H         7.5082674956        7.1289998248        4.0070788575
  O         6.4943765086        6.1603275658        2.4465426238
  O         5.7953786473        7.9029414818        3.5811681738
  C         4.7447768586        5.8524678968        6.9353653149
  H         5.7085862008        5.7040540943        7.4370666698
  O         4.3284953257        4.9885148560        6.0814678117
  O         4.1455183716        6.9223552202        7.1370382015
  C         7.5603298065        1.7452826031        7.1878453469
  H         8.1158840311        2.6116602203        7.6593692779
  O         6.7457675393        2.0301796359        6.2244167007
  O         7.8434328462        0.5820893174        7.5893990037
     227
 i =        2, time =        2.000, E =       -19.0836105723
 Cd        -8.6170184000        0.4783819920        3.4767414703
 Cd        -5.8707242220       -0.2576027192        7.1136896909
 Cd        -8.4089368862       -2.1551716993        0.3836699705
 Cd        -6.8897378098       -3.2939544766        3.9621308112