     227
 i =        0, time =        0.000, E =        -8.8747464360
 Cd        -8.6216924880        0.4810107428        3.4775887729
 Cd        -5.8723589632       -0.2566559957        7.1151373767
 Cd        -8.4076147924       -2.1531404527        0.3867588804
 Cd        -6.8957642261       -3.2896665849        3.9600318291
 Cd        -3.6930098048       -3.6992689615        7.3819491709
 Cd        -6.4429261463       -6.2347087238        0.4622469067
 Cd        -4.3123952394       -6.8285875372        3.9039095072
 Cd        -6.1141073353        3.8626235599        2.9066844924
 Cd        -3.6048790416        2.8797284733        6.5917986711
 Cd        -6.7531255596        1.1841266196       -0.3182182747
 Cd        -4.0437606329        0.0729837467        3.0511954168
 Cd        -1.7753257667       -0.3121054857        6.8316599018
 Cd        -6.3661028473       -1.4630135273       -3.4383357626
 Cd        -4.3602814436       -3.1214810613       -0.1759283953
 Cd        -2.2424276819       -3.6242998489        3.6335413818
 Cd         0.1757294635       -3.9625201566        7.0364714760
 Cd        -4.2692200317       -5.9860442556       -3.0005266361
 Cd        -2.2482225396       -6.7972628816        0.6786391664
 Cd         0.0669003827       -7.3030327295        3.8545421700
 Cd        -4.0792754193        7.4105475565        2.4175118797
 Cd        -1.6116442377        6.4880648240        6.2478272306
 Cd        -4.3308002626        4.8127262164       -0.6762739309
 Cd        -1.8326132452        3.6694977750        3.1598212265
 Cd         0.4939817277        3.1637060931        6.7202662426
 Cd        -4.5980154021        1.9988297698       -4.0880170010
 Cd        -2.1651194586        1.0165564496       -0.4536921834
 Cd         0.1376109507       -0.0659106884        3.1336818174
 Cd         2.6419074521       -0.6636939286        6.8958319365
 Cd        -4.1515129292       -0.5348426091       -6.9620217917
 Cd        -2.2012490343       -1.8491984656       -3.4894107829
 Cd         0.0359311218       -2.8494155653       -0.0264680683
 Cd         2.4407298775       -3.8224684908        3.5289587884
 Cd         4.5907434619       -4.2169180472        6.5928471603
 Cd        -2.6321953796       -4.5685798778       -6.0773989300
 Cd        -0.3638438279       -6.1221236347       -3.0620735359
 Cd         1.9882729153       -6.8506852632       -0.0376753302
 Cd         4.3604701588       -7.5063202656        3.0981086138
 Cd        -2.4313710890        8.2839908015       -1.2010761441
 Cd         0.1210964618        6.7915494583        2.0748938605
 Cd         2.2602783261        6.3879934074        5.9824457591
 Cd        -2.2743307721        5.5403016700       -4.1096429978
 Cd         0.1552258413        4.6164378819       -0.9814446932
 Cd         2.6173372932        3.7540356816        2.4616712460
 Cd         4.3934694910        2.5024270436        5.6448470259
 Cd        -2.3839877703        3.0961459608       -7.5397423510
 Cd        -0.1308699873        1.7716472388       -4.3458913396
 Cd         2.1522040622        0.8595996928       -0.9600505658
 Cd         4.3027041934       -0.4425155449        2.5248589789
 Cd         6.4943132815       -0.6514444341        6.0110723312
 Cd         0.4032906214       -0.5920449882       -7.0625722312
 Cd         2.1504065746       -1.8410095193       -3.9631978812
 Cd         4.1282053355       -2.9764966895       -0.5499119195
 Cd         6.9189885741       -3.8001688729        2.8840486736
 Cd         1.0693858855       -4.7693596381       -6.7909688629
 Cd         3.6529341800       -5.7620820022       -3.6150795142
 Cd         5.7341856059       -6.5625995016       -0.3323817960
 Cd         2.4532379782        8.1225833618       -1.1556872380
 Cd         4.4025673150        7.2904811152        1.7928276254
 Cd         2.3800547108        5.2453457502       -4.8107637235
 Cd         4.8184663347        4.7191125514       -1.4277792117
 Cd         6.7589411702        3.8390778732        2.0295448973
 Cd         2.6210634084        2.7844913241       -7.7035228004
 Cd         4.8495943395        1.7843685348       -4.5225056138
 Cd         6.7261500983        1.0662237140       -0.9642295531
 Cd         8.8881450478        0.4141445330        2.4369093904
 Cd         4.3615782352       -0.9213178924       -7.7328888960
 Cd         6.7438649008       -1.9767569930       -4.2031112584
 Cd         8.5272445020       -2.6218905711       -0.2551455218
 Se        -9.0557725106        0.2424574140        0.9180313808
 Se        -6.3745872764       -0.6570220647        4.4225742627
 Se        -3.9358548519       -1.3506397678        8.2925868769
 Se        -6.5830028390       -3.7408669090        1.3890860046
 Se        -4.5802302415       -4.2716541219        4.8585926421
 Se        -4.6110671623       -7.7792240778        1.5343213278
 Se        -6.6407812351        3.9866809498        0.4586064126
 Se        -4.0705866514        2.6241591830        3.9150270775
 Se        -1.6315747320        2.0143859544        7.9219454430
 Se        -6.7106235468        0.9827493806       -3.1628202938
 Se        -4.4077684895       -0.2106461950        0.3970531668
 Se        -2.0534879979       -1.1190641497        4.2604482105
 Se         0.4069246601       -1.5676855049        8.0617057342
 Se        -4.4126107232       -3.1307459794       -2.8028288282
 Se        -2.2371864822       -4.0884616040        0.9473336128
 Se         0.1541797359       -4.8148952714        4.4843326207
 Se        -2.4147106009       -7.4199706225       -2.0529393442
 Se        -0.0662571417       -7.8800811154        1.3078284855
 Se        -4.5519687636        7.5920037884       -0.0122560791
 Se        -1.8482840651        6.3647212661        3.5390459072
 Se         0.4006735392        5.8241498358        7.5878867146
 Se        -4.4655945585        4.5529209660       -3.3484418515
 Se        -2.0798083538        3.7153034916        0.3451575142
 Se         0.4973892782        2.6967113851        3.7286137790
 Se         2.7724753484        1.9958260876        7.6298945277
 Se        -4.6126224962        2.0736182894       -6.9031574659
 Se        -2.2770211290        0.8531533747       -3.1284312065
 Se         0.0138865169       -0.1636477002        0.3858468104
 Se         2.3115473387       -1.3198431962        4.0017354986
 Se         4.8624545925       -1.8855864388        7.7371297607
 Se        -2.0700877949       -1.9675257511       -6.4603372509
 Se        -0.0447057629       -3.1582708631       -2.8090856920
 Se         2.2343306950       -4.2299664240        0.7817840723
 Se         4.8342987615       -4.9516929708        4.0974643468
 Se        -0.7556003326       -6.2829108386       -5.8406699955
 Se         1.9243057511       -7.4784768035       -2.6074198353
 Se         4.2543989663       -8.3809591814        0.7363809319
 Se         0.0386925703        7.3677075300       -0.4939635450
 Se         2.3791568525        6.5289221229        3.1400383851
 Se         0.0465974103        4.4270318221       -3.5936563407
 Se         2.5167269427        3.6273521599       -0.0581806204
 Se         4.7705604635        2.4670139639        3.1233546104
 Se         0.0435933033        1.9323944164       -6.9695738842
 Se         2.2733127965        0.7623703678       -3.6584263160
 Se         4.3816175435       -0.2841549253       -0.0177063702
 Se         6.9670500347       -1.1290204494        3.5565582379
 Se         2.2410869402       -2.2702007814       -6.6798205275
 Se         4.3723294721       -3.1971869108       -3.2130677403
 Se         6.4331938555       -4.1098532443        0.4136420186
 Se         4.8503033307        7.5509093293       -0.7463548497
 Se         4.8776288797        4.5477652435       -4.0091414448
 Se         7.0830986217        3.5950723552       -0.6434567968
 Se         4.7810064642        1.5273410534       -7.5566303287
 Se         6.9188050062        0.6130038217       -3.7081238627
 Se         9.1066871843       -0.0609359671       -0.0919647969
  C         6.9955771113       -6.9586634775       -2.8583426301
  H         7.7780160969       -7.1271873265       -3.6573399650
  O         5.8389952916       -6.4652991204       -3.1445809228
  O         7.2920676004       -7.2683568805       -1.6893132711
  C         3.3939431960       -6.2668607509       -6.9513074648
  H         4.3245440932       -6.8689211647       -7.0591687882
  O         3.0202466073       -5.7860511295       -5.7843136273
  O         2.6220129789       -6.1746538788       -7.9242101403
  C         6.3116555909       -2.9071154185       -7.4921130606
  H         7.0978863851       -3.7212906458       -7.4285512081
  O         6.0096715894       -2.3219711192       -6.3505932827
  O         5.9403243477       -2.4750431756       -8.6116316973
  C         8.9837561036       -3.3697375837       -3.4349055328
  H         9.9249943929       -3.8864043165       -3.1840078659
  O         8.5659407989       -3.4209184445       -4.6048832464
  O         8.2714489672       -2.6971151254       -2.5207012617
  C         9.7902109758       -4.6282247391        2.1768529346
  H        10.6284324694       -5.3337138149        2.3552924638
  O         9.7484501532       -4.1824896055        0.9942458601
  O         9.0219926648       -4.5705851174        3.1873629795
  C        -2.8252708508       -8.8894178348        5.3653894160
  H        -2.3915771747       -9.8892286280        5.4446685031
  O        -1.9808601030       -7.9304545651        5.0436955975
  O        -4.0908415257       -8.7280019527        5.4030844137
  C         3.0047406823       -8.6887063298        5.2919739424
  H         2.6853413808       -9.0312323512        6.2714246943
  O         1.9985977812       -8.3553887881        4.5599054594
  O         4.2197147413       -8.6069092298        4.9235206312
  C         2.8732291572       -5.7090624943        8.2322507888
  H         2.4095730423       -6.3582442170        8.9295273658
  O         2.2236878889       -4.8031284854        7.6183804854
  O         4.1525405945       -5.8988692439        8.1468427445
  C        -2.5324052264       -5.9090323801        8.5168983878
  H        -2.0058427467       -6.7599986745        9.0204193621
  O        -1.9189018681       -5.2527647032        7.5983339134
  O        -3.6521974131       -5.4981014961        8.8936623702
  C        -6.8661340661        2.3082426882        7.3884767521
  H        -7.2433530482        3.2983326111        7.3747512577
  O        -5.6189307919        2.1553364867        7.5292857639
  O        -7.6694328727        1.3672322100        7.2032576312
  C        -4.1128935570        6.2776012356        7.2258109093
  H        -5.2184092536        6.2949225170        7.4003980339
  O        -3.5215502414        5.2331222329        6.7794929280
  O        -3.5956064510        7.4679880815        7.3184340370
  C        -6.2584500423        7.1467273309        4.0778865765
  H        -7.2018864753        7.1620259062        4.6862261037
  O        -5.8042352338        6.0508881806        3.6277903665
  O        -5.6141473350        8.2227071687        3.8530055117
  C        -9.2670155991        2.9624473135        4.4549609073
  H        -9.7760873251        3.8307467380        4.7753730710
  O        -8.0580447847        3.0137717908        4.1153681461
  O       -10.0869615960        1.9755230626        4.3964141791
  C        -9.5997958208       -3.5202239981        4.2555074891
  H       -10.6284324694       -3.6062117458        4.7363993397
  O        -9.3836198173       -2.7271085544        3.2939504316
  O        -8.6749593009       -4.3055307223        4.7674147240
  C        -5.4063829718       -6.0836320759       -6.1576393485
  H        -6.0390997038       -6.5934387315       -6.8768176703
  O        -5.3157147411       -6.5042627408       -4.9638375967
  O        -4.7997118332       -5.0931497246       -6.6842330004
  C        -7.4812021438       -7.2683192216       -1.8337008205
  H        -7.8430239833       -7.7214409635       -2.7403108931
  O        -6.3847231004       -6.5596142310       -1.8855223803
  O        -8.0870004405       -7.4369608581       -0.7449951352
  C        -9.2637717352       -3.4248031045       -2.1287629167
  H        -9.5435102925       -4.0726156799       -2.9624854104
  O        -8.1685743898       -2.7562864935       -2.2769679175
  O        -9.8293124780       -3.4993302663       -1.0042472880
  C        -6.7198117275       -1.5155721631       -7.0057360974
  H        -7.7266400310       -1.9701098143       -7.1795729881
  O        -6.3208037730       -1.2812141421       -5.7891801227
  O        -6.0546670581       -1.2647410752       -8.0219575549
  C        -1.9610306020        5.6962737072       -7.4797868569
  H        -1.8068881661        6.7616764611       -7.4798700689
  O        -2.4613788677        5.1953402046       -6.4147373301
  O        -1.7592038190        5.0404242691       -8.5376948407
  C        -1.7153677193        9.0065729983       -3.7807068554
  H        -1.3518565997        9.2891789052       -4.8285272378
  O        -1.7735635219        7.7204009534       -3.5311974415
  O        -1.9589811591        9.8892286280       -2.9296575010
  C         2.5176986766        8.6527359013       -4.1276241396
  H         2.7356319561        9.0838176512       -5.0545617483
  O         2.0941304229        7.4607563111       -4.0382054964
  O         2.6632020791        9.4136986823       -3.1567247192
  C         1.7405814703        5.3615037054       -8.2026998584
  H         1.4592813282        6.4433815072       -8.3446733349
  O         2.2712544771        5.0744229803       -7.0359036782
  O         1.5374971892        4.4786315137       -9.0204193621
  C         9.4791869119        2.6134878200        3.9079418032
  H         9.6264681644        3.4611325178        4.5867541287
  O         8.5294682966        2.7206869475        3.0468687327
  O        10.1884170796        1.5361363159        4.0354546634
  C         6.6320899766        7.0427804887        3.3240585285
  H         7.5183451153        7.1103565644        4.0025867163
  O         6.4921259472        6.1579139584        2.4473334656
  O         5.8014508194        7.8970951585        3.5804466065
  C         4.7468288793        5.8510846562        6.9391041765
  H         5.6837062732        5.7110173508        7.4566454645
  O         4.3315486404        4.9881730889        6.0840680113
  O         4.1390624477        6.9214380767        7.1338855679
  C         7.5642974957        1.7429307679        7.1823006621
  H         8.1116275708        2.6102062210        7.6466333920
  O         6.7423080014        2.0330978891        6.2208765696
  O         7.8434776238        0.5800715711        7.5931108165
     227
 i =        1, time =        1.000, E =        -8.8841004415
 Cd        -8.6193391461        0.4796329021        3.4771786655
 Cd        -5.8715539241       -0.2571945743        7.1143870595
 Cd        -8.4082152589       -2.1541455730        0.3852271464
 Cd        -6.8927228873       -3.2917977019        3.9610987110
 Cd        -3.6901796556       -3.7003976153        7.3823625206
 Cd        -6.4419771273       -6.2357475100        0.4642818743
 Cd        -4.3123495504       -6.8296071879        3.9052313744
 Cd        -6.1163829587        3.8609258483        2.9055805608
 Cd        -3.6066284980        2.8812309027        6.5903854998
 Cd        -6.7534204092        1.1872341251       -0.3192211754
 Cd        -4.0444164741        0.0755172009        3.0501745148
 Cd        -1.7741902915       -0.3125873314        6.8335588213
 Cd        -6.3660906514       -1.4624651585       -3.4401694230
 Cd        -4.3613600080       -3.1217774289       -0.1745519588
 Cd        -2.2426066115       -3.6215845882        3.6336023145
 Cd         0.1786873709       -3.9615949452        7.0369301513
 Cd        -4.2693746434       -5.9881999075       -2.9988628585
 Cd        -2.2487257639       -6.7966049545        0.6791658997
 Cd         0.0677796761       -7.3030001056        3.8542349530
 Cd        -4.0802658053        7.4119308165        2.4182868489
 Cd        -1.6107911686        6.4879462257        6.2509419478
 Cd        -4.3325185126        4.8128110473       -0.6769435450
 Cd        -1.8303897511        3.6695997659        3.1589346522
 Cd         0.4898048963        3.1633512851        6.7205082131
 Cd        -4.5995968790        2.0001046187       -4.0890226250
 Cd        -2.1628919054        1.0181333647       -0.4517487377
 Cd         0.1384253488       -0.0681593180        3.1344036180
 Cd         2.6424447622       -0.6635576038        6.8958767727
 Cd        -4.1540699040       -0.5351477127       -6.9611271370
 Cd        -2.2031774141       -1.8490912162       -3.4900353824
 Cd         0.0358054763       -2.8474769002       -0.0250983381
 Cd         2.4397169086       -3.8215705289        3.5304585957
 Cd         4.5938404823       -4.2151964717        6.5946736418
 Cd        -2.6316991902       -4.5699628728       -6.0785365811
 Cd        -0.3609630378       -6.1210332424       -3.0631306076
 Cd         1.9864155142       -6.8523308133       -0.0374548572
 Cd         4.3578760833       -7.5050095960        3.0973877191
 Cd        -2.4320368608        8.2867373553       -1.2003568296
 Cd         0.1211450670        6.7911468383        2.0747623791
 Cd         2.2580959439        6.3879449419        5.9826056644
 Cd        -2.2740243083        5.5405544036       -4.1121256505
 Cd         0.1544590234        4.6148623106       -0.9823233446
 Cd         2.6165119262        3.7533720047        2.4610533858
 Cd         4.3939193028        2.5015255251        5.6447048959
 Cd        -2.3864561438        3.0936986585       -7.5399027623
 Cd        -0.1312612625        1.7709162161       -4.3474116055
 Cd         2.1531569958        0.8600298565       -0.9631981504
 Cd         4.3034749880       -0.4402578181        2.5248336438
 Cd         6.4920194692       -0.6517762550        6.0105032429
 Cd         0.4042392039       -0.5927828000       -7.0621401293
 Cd         2.1512985963       -1.8411031332       -3.9633273002
 Cd         4.1299706114       -2.9780135425       -0.5482310573
 Cd         6.9198164719       -3.7969675742        2.8855560681
 Cd         1.0695506067       -4.7691725672       -6.7906861705
 Cd         3.6506253858       -5.7625074254       -3.6177026452
 Cd         5.7329419029       -6.5640028612       -0.3327633406
 Cd         2.4550936056        8.1223105952       -1.1566089400
 Cd         4.4053495846        7.2898010395        1.7948207853
 Cd         2.3804035157        5.2452006189       -4.8087050437
 Cd         4.8189601920        4.7184611090       -1.4283829854
 Cd         6.7582296937        3.8401578835        2.0311384978
 Cd         2.6217708272        2.7829080642       -7.7033788165
 Cd         4.8493042823        1.7846808531       -4.5231461908
 Cd         6.7277010538        1.0649914492       -0.9631038413
 Cd         8.8867425631        0.4155720454        2.4348062841
 Cd         4.3617864545       -0.9226452307       -7.7309320932
 Cd         6.7427641341       -1.9756179629       -4.2012625597
 Cd         8.5291348253       -2.6208024153       -0.2527796610
 Se        -9.0548277039        0.2429287879        0.9182954484
 Se        -6.3727739152       -0.6564784983        4.4183189574
 Se        -3.9345131741       -1.3489280390        8.2966022181
 Se        -6.5831240081       -3.7425444360        1.3880642997
 Se        -4.5790811064       -4.2748673662        4.8597576136
 Se        -4.6122432874       -7.7766489886        1.5328234568
 Se        -6.6423176711        3.9855684876        0.4576530819
 Se        -4.0719796994        2.6208447309        3.9143210573
 Se        -1.6332987742        2.0117678047        7.9251987317
 Se        -6.7117563982        0.9829446658       -3.1654471885
 Se        -4.4070880003       -0.2111982036        0.3948840565
 Se        -2.0531228316       -1.1153338055        4.2594045081
 Se         0.4059977652       -1.5661471922        8.0651248400
 Se        -4.4160897119       -3.1300220099       -2.8046934760
 Se        -2.2374250668       -4.0915956728        0.9472109233
 Se         0.1530462012       -4.8127480761        4.4858180312
 Se        -2.4165593766       -7.4206810835       -2.0539404390
 Se        -0.0669260639       -7.8792037268        1.3095451841
 Se        -4.5522035298        7.5948548270       -0.0126444544
 Se        -1.8468083353        6.3633133863        3.5401182286
 Se         0.4037124249        5.8261547017        7.5859644987
 Se        -4.4660945774        4.5539800102       -3.3489557396
 Se        -2.0809850278        3.7152460952        0.3431777734
 Se         0.4982454086        2.6969865209        3.7287076650
 Se         2.7718014064        1.9958768403        7.6262647064
 Se        -4.6132449602        2.0747844283       -6.9049188942
 Se        -2.2789042696        0.8535212984       -3.1261061362
 Se         0.0145692686       -0.1632259913        0.3854050205
 Se         2.3129730875       -1.3188969267        3.9990465317
 Se         4.8631729120       -1.8842965458        7.7354641779
 Se        -2.0701849931       -1.9664247231       -6.4603905038
 Se        -0.0447025652       -3.1599544164       -2.8087896645
 Se         2.2323196514       -4.2314742507        0.7809437549
 Se         4.8362471584       -4.9531221371        4.0967249908
 Se        -0.7551487861       -6.2848958605       -5.8413961049
 Se         1.9250152467       -7.4790965461       -2.6076524904
 Se         4.2593566403       -8.3792567550        0.7363746299
 Se         0.0356294141        7.3686405119       -0.4913515631
 Se         2.3809427838        6.5252153038        3.1425252336
 Se         0.0437365982        4.4288359576       -3.5940215066
 Se         2.5163974263        3.6274371349       -0.0568915601
 Se         4.7727309250        2.4661632819        3.1253189062
 Se         0.0455166034        1.9300117335       -6.9705473185
 Se         2.2758510651        0.7648584191       -3.6570744859
 Se         4.3766748786       -0.2853653383       -0.0178398936
 Se         6.9677282334       -1.1294420579        3.5582175683
 Se         2.2370375042       -2.2682233915       -6.6837839915
 Se         4.3737618061       -3.1974942212       -3.2156774227
 Se         6.4331539419       -4.1116965490        0.4129310220
 Se         4.8516236452        7.5524238368       -0.7459477280
 Se         4.8775042097        4.5489986536       -4.0122793609
 Se         7.0856416477        3.5934983041       -0.6428988782
 Se         4.7817676867        1.5264617124       -7.5555489984
 Se         6.9186201417        0.6112207947       -3.7073706257
 Se         9.1069111882       -0.0626802131       -0.0923634862
  C         6.9966787606       -6.9498422594       -2.8612694486
  H         7.7649322095       -7.1224747738       -3.6684216540
  O         5.8440920616       -6.4672680335       -3.1400800194
  O         7.2887247562       -7.2742273766       -1.6937786165
  C         3.3950648033       -6.2673074217       -6.9491822101
  H         4.3444066225       -6.8936096686       -7.0753272229
  O         3.0188429575       -5.7909255111       -5.7821296921
  O         2.6177632477       -6.1689604484       -7.9240238794
  C         6.3106279884       -2.9078499075       -7.4910580784
  H         7.1299137504       -3.7048862282       -7.4466889051
  O         6.0085270312       -2.3182222557       -6.3475502305
  O         5.9394134217       -2.4742907506       -8.6124983085
  C         8.9774500853       -3.3708802717       -3.4296496790
  H         9.9250180562       -3.8774829974       -3.1826003730
  O         8.5683393424       -3.4149231731       -4.6046355772
  O         8.2717700847       -2.6967229392       -2.5201399961
  C         9.7980762873       -4.6252015465        2.1809987422
  H        10.6408655401       -5.3318691344        2.3887999993
  O         9.7471938796       -4.1805689322        0.9926500261
  O         9.0287474957       -4.5681842263        3.1870690139
  C        -2.8217317850       -8.8884399642        5.3598597202
  H        -2.4154187803       -9.9024293192        5.4343946394
  O        -1.9847777471       -7.9306704196        5.0423572235
  O        -4.0904599102       -8.7274858573        5.4044527008
  C         2.9969223248       -8.6916244619        5.2874263325
  H         2.6967725338       -9.0398269484        6.2934215078
  O         1.9994308300       -8.3579281645        4.5594612459
  O         4.2233464347       -8.6007814517        4.9158064987
  C         2.8793053111       -5.7053268505        8.2324293586
  H         2.3955873073       -6.3773024893        8.9303283437
  O         2.2190913255       -4.8088941366        7.6163979059
  O         4.1498194977       -5.9035530521        8.1536715557
  C        -2.5347136985       -5.9173476382        8.5220090699
  H        -2.0052498086       -6.7390725628        9.0096019785
  O        -1.9213724658       -5.2584158519        7.5983559058
  O        -3.6522411984       -5.5084813929        8.8928260378
  C        -6.8630684018        2.3027056577        7.3892095212
  H        -7.2086193538        3.3071349018        7.3885257928
  O        -5.6213894888        2.1591290512        7.5337556581
  O        -7.6696003635        1.3703092672        7.1999604104
  C        -4.1169958162        6.2828055548        7.2281936104
  H        -5.2418933127        6.2896177269        7.3832000201
  O        -3.5267574549        5.2290802911        6.7738704949
  O        -3.5911241608        7.4673526223        7.3180800430
  C        -6.2567441027        7.1462454140        4.0780918675
  H        -7.2111390447        7.1649409639        4.6689854642
  O        -5.8090653681        6.0479464030        3.6279268148
  O        -5.6128873551        8.2207907296        3.8488338090
  C        -9.2742234083        2.9617586620        4.4604762697
  H        -9.7855372140        3.8838940690        4.7760086716
  O        -8.0588679375        3.0118987077        4.1193064593
  O       -10.0811934386        1.9793599578        4.3922523399
  C        -9.6032819378       -3.5282214730        4.2551683305
  H       -10.5971720209       -3.6001750875        4.7566807035
  O        -9.3833251297       -2.7227891461        3.2942771712
  O        -8.6788024092       -4.3017971884        4.7630729426
  C        -5.4081382140       -6.0792362685       -6.1561970446
  H        -6.0546960796       -6.5859836395       -6.8890942905
  O        -5.3111061869       -6.5041302695       -4.9653236792
  O        -4.7985214319       -5.0927745846       -6.6853428440
  C        -7.4874952870       -7.2705770784       -1.8347934969
  H        -7.8388434959       -7.7173330376       -2.7530342297
  O        -6.3887874118       -6.5550164543       -1.8843620716
  O        -8.0717541038       -7.4409583618       -0.7458757744
  C        -9.2562818551       -3.4269967326       -2.1219770304
  H        -9.5270787848       -4.0663584857       -2.9594189931
  O        -8.1698598464       -2.7554262534       -2.2727022414
  O        -9.8242688876       -3.4940053555       -1.0092499618
  C        -6.7207114830       -1.5101420063       -7.0046033556
  H        -7.7450574417       -1.9674181007       -7.1698505571
  O        -6.3198536904       -1.2781304758       -5.7991212330
  O        -6.0634241982       -1.2635139057       -8.0155832955
  C        -1.9629117184        5.6954910868       -7.4853210963
  H        -1.7770888886        6.7764005651       -7.4923242406
  O        -2.4611919175        5.1867793513       -6.4087889025
  O        -1.7563642370        5.0405603595       -8.5284310847
  C        -1.7168973692        9.0075139149       -3.7839135282
  H        -1.3493405476        9.2660238074       -4.8465614694
  O        -1.7700301046        7.7195933682       -3.5246505870
  O        -1.9637418848        9.8896331864       -2.9408936023
  C         2.5062439505        8.6538918542       -4.1272905228
  H         2.7131102182        9.0638249498       -5.0476060874
  O         2.0944572339        7.4533348408       -4.0306961471
  O         2.6627594969        9.4112130310       -3.1553106591
  C         1.7411638912        5.3672434284       -8.1968712013
  H         1.4358383610        6.4416008070       -8.3632925476
  O         2.2781428130        5.0766573914       -7.0409034224
  O         1.5312179496        4.4834182960       -9.0176295703
  C         9.4768922141        2.6096287077        3.8999969878
  H         9.6131090334        3.4671477718        4.5843902861
  O         8.5280845958        2.7173692609        3.0492490627
  O        10.1886030670        1.5401985876        4.0331658801
  C         6.6326638044        7.0383122692        3.3281999362
  H         7.5082674956        7.1289998248        4.0070788575
  O         6.4945225075        6.1604824803        2.4465922183
  O         5.7955546623        7.9030407987        3.5813663335
  C         4.7447651621        5.8524862705        6.9354057755
  H         5.7085862008        5.7040540943        7.4370666698
  O         4.3286276933        4.9885686400        6.0815385969
  O         4.1458083583        6.9224492331        7.1372559557
  C         7.5603395018        1.7452805962        7.1878915221
  H         8.1158840311        2.6116602203        7.6593692779
  O         6.7459212651        2.0302453088        6.2244780844
  O         7.8435497017        0.5821864158        7.5895734546
     227
 i =        2, time =        2.000, E =        -8.8994460400
 Cd        -8.6169843297        0.4782800103        3.4768024487
 Cd        -5.8708367756       -0.2576532763        7.1136118506
 Cd        -8.4088641400       -2.1552178316        0.3836445707
 Cd        -6.8896676789       -3.2938897659        3.9621585032