     227
 i =        0, time =        0.000, E =       -47.7092477161
 Cd        -8.6216924880        0.4810107428        3.4775887729
 Cd        -5.8723589632       -0.2566559957        7.1151373767
 Cd        -8.4076147924       -2.1531404527        0.3867588804
 Cd        -6.8957642261       -3.2896665849        3.9600318291
 Cd        -3.6930098048       -3.6992689615        7.3819491709
 Cd        -6.4429261463       -6.2347087238        0.4622469067
 Cd        -4.3123952394       -6.8285875372        3.9039095072
 Cd        -6.1141073353        3.8626235599        2.9066844924
 Cd        -3.6048790416        2.8797284733        6.5917986711
 Cd        -6.7531255596        1.1841266196       -0.3182182747
 Cd        -4.0437606329        0.0729837467        3.0511954168
 Cd        -1.7753257667       -0.3121054857        6.8316599018
 Cd        -6.3661028473       -1.4630135273       -3.4383357626
 Cd        -4.3602814436       -3.1214810613       -0.1759283953
 Cd        -2.2424276819       -3.6242998489        3.6335413818
 Cd         0.1757294635       -3.9625201566        7.0364714760
 Cd        -4.2692200317       -5.9860442556       -3.0005266361
 Cd        -2.2482225396       -6.7972628816        0.6786391664
 Cd         0.0669003827       -7.3030327295        3.8545421700
 Cd        -4.0792754193        7.4105475565        2.4175118797
 Cd        -1.6116442377        6.4880648240        6.2478272306
 Cd        -4.3308002626        4.8127262164       -0.6762739309
 Cd        -1.8326132452        3.6694977750        3.1598212265
 Cd         0.4939817277        3.1637060931        6.7202662426
 Cd        -4.5980154021        1.9988297698       -4.0880170010
 Cd        -2.1651194586        1.0165564496       -0.4536921834
 Cd         0.1376109507       -0.0659106884        3.1336818174
 Cd         2.6419074521       -0.6636939286        6.8958319365
 Cd        -4.1515129292       -0.5348426091       -6.9620217917
 Cd        -2.2012490343       -1.8491984656       -3.4894107829
 Cd         0.0359311218       -2.8494155653       -0.0264680683
 Cd         2.4407298775       -3.8224684908        3.5289587884
 Cd         4.5907434619       -4.2169180472        6.5928471603
 Cd        -2.6321953796       -4.5685798778       -6.0773989300
 Cd        -0.3638438279       -6.1221236347       -3.0620735359
 Cd         1.9882729153       -6.8506852632       -0.0376753302
 Cd         4.3604701588       -7.5063202656        3.0981086138
 Cd        -2.4313710890        8.2839908015       -1.2010761441
 Cd         0.1210964618        6.7915494583        2.0748938605
 Cd         2.2602783261        6.3879934074        5.9824457591
 Cd        -2.2743307721        5.5403016700       -4.1096429978
 Cd         0.1552258413        4.6164378819       -0.9814446932
 Cd         2.6173372932        3.7540356816        2.4616712460
 Cd         4.3934694910        2.5024270436        5.6448470259
 Cd        -2.3839877703        3.0961459608       -7.5397423510
 Cd        -0.1308699873        1.7716472388       -4.3458913396
 Cd         2.1522040622        0.8595996928       -0.9600505658
 Cd         4.3027041934       -0.4425155449        2.5248589789
 Cd         6.4943132815       -0.6514444341        6.0110723312
 Cd         0.4032906214       -0.5920449882       -7.0625722312
 Cd         2.1504065746       -1.8410095193       -3.9631978812
 Cd         4.1282053355       -2.9764966895       -0.5499119195
 Cd         6.9189885741       -3.8001688729        2.8840486736
 Cd         1.0693858855       -4.7693596381       -6.7909688629
 Cd         3.6529341800       -5.7620820022       -3.6150795142
 Cd         5.7341856059       -6.5625995016       -0.3323817960
 Cd         2.4532379782        8.1225833618       -1.1556872380
 Cd         4.4025673150        7.2904811152        1.7928276254
 Cd         2.3800547108        5.2453457502       -4.8107637235
 Cd         4.8184663347        4.7191125514       -1.4277792117
 Cd         6.7589411702        3.8390778732        2.0295448973
 Cd         2.6210634084        2.7844913241       -7.7035228004
 Cd         4.8495943395        1.7843685348       -4.5225056138
 Cd         6.7261500983        1.0662237140       -0.9642295531
 Cd         8.8881450478        0.4141445330        2.4369093904
 Cd         4.3615782352       -0.9213178924       -7.7328888960
 Cd         6.7438649008       -1.9767569930       -4.2031112584
 Cd         8.5272445020       -2.6218905711       -0.2551455218
 Se        -9.0557725106        0.2424574140        0.9180313808
 Se        -6.3745872764       -0.6570220647        4.4225742627
 Se        -3.9358548519       -1.3506397678        8.2925868769
 Se        -6.5830028390       -3.7408669090        1.3890860046
 Se        -4.5802302415       -4.2716541219        4.8585926421
 Se        -4.6110671623       -7.7792240778        1.5343213278
 Se        -6.6407812351        3.9866809498        0.4586064126
 Se        -4.0705866514        2.6241591830        3.9150270775
 Se        -1.6315747320        2.0143859544        7.9219454430
 Se        -6.7106235468        0.9827493806       -3.1628202938
 Se        -4.4077684895       -0.2106461950        0.3970531668
 Se        -2.0534879979       -1.1190641497        4.2604482105
 Se         0.4069246601       -1.5676855049        8.0617057342
 Se        -4.4126107232       -3.1307459794       -2.8028288282
 Se        -2.2371864822       -4.0884616040        0.9473336128
 Se         0.1541797359       -4.8148952714        4.4843326207
 Se        -2.4147106009       -7.4199706225       -2.0529393442
 Se        -0.0662571417       -7.8800811154        1.3078284855
 Se        -4.5519687636        7.5920037884       -0.0122560791
 Se        -1.8482840651        6.3647212661        3.5390459072
 Se         0.4006735392        5.8241498358        7.5878867146
 Se        -4.4655945585        4.5529209660       -3.3484418515
 Se        -2.0798083538        3.7153034916        0.3451575142
 Se         0.4973892782        2.6967113851        3.7286137790
 Se         2.7724753484        1.9958260876        7.6298945277
 Se        -4.6126224962        2.0736182894       -6.9031574659
 Se        -2.2770211290        0.8531533747       -3.1284312065
 Se         0.0138865169       -0.1636477002        0.3858468104
 Se         2.3115473387       -1.3198431962        4.0017354986
 Se         4.8624545925       -1.8855864388        7.7371297607
 Se        -2.0700877949       -1.9675257511       -6.4603372509
 Se        -0.0447057629       -3.1582708631       -2.8090856920
 Se         2.2343306950       -4.2299664240        0.7817840723
 Se         4.8342987615       -4.9516929708        4.0974643468
 Se        -0.7556003326       -6.2829108386       -5.8406699955
 Se         1.9243057511       -7.4784768035       -2.6074198353
 Se         4.2543989663       -8.3809591814        0.7363809319
 Se         0.0386925703        7.3677075300       -0.4939635450
 Se         2.3791568525        6.5289221229        3.1400383851
 Se         0.0465974103        4.4270318221       -3.5936563407
 Se         2.5167269427        3.6273521599       -0.0581806204
 Se         4.7705604635        2.4670139639        3.1233546104
 Se         0.0435933033        1.9323944164       -6.9695738842
 Se         2.2733127965        0.7623703678       -3.6584263160
 Se         4.3816175435       -0.2841549253       -0.0177063702
 Se         6.9670500347       -1.1290204494        3.5565582379
 Se         2.2410869402       -2.2702007814       -6.6798205275
 Se         4.3723294721       -3.1971869108       -3.2130677403
 Se         6.4331938555       -4.1098532443        0.4136420186
 Se         4.8503033307        7.5509093293       -0.7463548497
 Se         4.8776288797        4.5477652435       -4.0091414448
 Se         7.0830986217        3.5950723552       -0.6434567968
 Se         4.7810064642        1.5273410534       -7.5566303287
 Se         6.9188050062        0.6130038217       -3.7081238627
 Se         9.1066871843       -0.0609359671       -0.0919647969
  C         6.9955771113       -6.9586634775       -2.8583426301
  H         7.7780160969       -7.1271873265       -3.6573399650
  O         5.8389952916       -6.4652991204       -3.1445809228
  O         7.2920676004       -7.2683568805       -1.6893132711
  C         3.3939431960       -6.2668607509       -6.9513074648
  H         4.3245440932       -6.8689211647       -7.0591687882
  O         3.0202466073       -5.7860511295       -5.7843136273
  O         2.6220129789       -6.1746538788       -7.9242101403
  C         6.3116555909       -2.9071154185       -7.4921130606
  H         7.0978863851       -3.7212906458       -7.4285512081
  O         6.0096715894       -2.3219711192       -6.3505932827
  O         5.9403243477       -2.4750431756       -8.6116316973
  C         8.9837561036       -3.3697375837       -3.4349055328
  H         9.9249943929       -3.8864043165       -3.1840078659
  O         8.5659407989       -3.4209184445       -4.6048832464
  O         8.2714489672       -2.6971151254       -2.5207012617
  C         9.7902109758       -4.6282247391        2.1768529346
  H        10.6284324694       -5.3337138149        2.3552924638
  O         9.7484501532       -4.1824896055        0.9942458601
  O         9.0219926648       -4.5705851174        3.1873629795
  C        -2.8252708508       -8.8894178348        5.3653894160
  H        -2.3915771747       -9.8892286280        5.4446685031
  O        -1.9808601030       -7.9304545651        5.0436955975
  O        -4.0908415257       -8.7280019527        5.4030844137
  C         3.0047406823       -8.6887063298        5.2919739424
  H         2.6853413808       -9.0312323512        6.2714246943
  O         1.9985977812       -8.3553887881        4.5599054594
  O         4.2197147413       -8.6069092298        4.9235206312
  C         2.8732291572       -5.7090624943        8.2322507888
  H         2.4095730423       -6.3582442170        8.9295273658
  O         2.2236878889       -4.8031284854        7.6183804854
  O         4.1525405945       -5.8988692439        8.1468427445
  C        -2.5324052264       -5.9090323801        8.5168983878
  H        -2.0058427467       -6.7599986745        9.0204193621
  O        -1.9189018681       -5.2527647032        7.5983339134
  O        -3.6521974131       -5.4981014961        8.8936623702
  C        -6.8661340661        2.3082426882        7.3884767521
  H        -7.2433530482        3.2983326111        7.3747512577
  O        -5.6189307919        2.1553364867        7.5292857639
  O        -7.6694328727        1.3672322100        7.2032576312
  C        -4.1128935570        6.2776012356        7.2258109093
  H        -5.2184092536        6.2949225170        7.4003980339
  O        -3.5215502414        5.2331222329        6.7794929280
  O        -3.5956064510        7.4679880815        7.3184340370
  C        -6.2584500423        7.1467273309        4.0778865765
  H        -7.2018864753        7.1620259062        4.6862261037
  O        -5.8042352338        6.0508881806        3.6277903665
  O        -5.6141473350        8.2227071687        3.8530055117
  C        -9.2670155991        2.9624473135        4.4549609073
  H        -9.7760873251        3.8307467380        4.7753730710
  O        -8.0580447847        3.0137717908        4.1153681461
  O       -10.0869615960        1.9755230626        4.3964141791
  C        -9.5997958208       -3.5202239981        4.2555074891
  H       -10.6284324694       -3.6062117458        4.7363993397
  O        -9.3836198173       -2.7271085544        3.2939504316
  O        -8.6749593009       -4.3055307223        4.7674147240
  C        -5.4063829718       -6.0836320759       -6.1576393485
  H        -6.0390997038       -6.5934387315       -6.8768176703
  O        -5.3157147411       -6.5042627408       -4.9638375967
  O        -4.7997118332       -5.0931497246       -6.6842330004
  C        -7.4812021438       -7.2683192216       -1.8337008205
  H        -7.8430239833       -7.7214409635       -2.7403108931
  O        -6.3847231004       -6.5596142310       -1.8855223803
  O        -8.0870004405       -7.4369608581       -0.7449951352
  C        -9.2637717352       -3.4248031045       -2.1287629167
  H        -9.5435102925       -4.0726156799       -2.9624854104
  O        -8.1685743898       -2.7562864935       -2.2769679175
  O        -9.8293124780       -3.4993302663       -1.0042472880
  C        -6.7198117275       -1.5155721631       -7.0057360974
  H        -7.7266400310       -1.9701098143       -7.1795729881
  O        -6.3208037730       -1.2812141421       -5.7891801227
  O        -6.0546670581       -1.2647410752       -8.0219575549
  C        -1.9610306020        5.6962737072       -7.4797868569
  H        -1.8068881661        6.7616764611       -7.4798700689
  O        -2.4613788677        5.1953402046       -6.4147373301
  O        -1.7592038190        5.0404242691       -8.5376948407
  C        -1.7153677193        9.0065729983       -3.7807068554
  H        -1.3518565997        9.2891789052       -4.8285272378
  O        -1.7735635219        7.7204009534       -3.5311974415
  O        -1.9589811591        9.8892286280       -2.9296575010
  C         2.5176986766        8.6527359013       -4.1276241396
  H         2.7356319561        9.0838176512       -5.0545617483
  O         2.0941304229        7.4607563111       -4.0382054964
  O         2.6632020791        9.4136986823       -3.1567247192
  C         1.7405814703        5.3615037054       -8.2026998584
  H         1.4592813282        6.4433815072       -8.3446733349
  O         2.2712544771        5.0744229803       -7.0359036782
  O         1.5374971892        4.4786315137       -9.0204193621
  C         9.4791869119        2.6134878200        3.9079418032
  H         9.6264681644        3.4611325178        4.5867541287
  O         8.5294682966        2.7206869475        3.0468687327
  O        10.1884170796        1.5361363159        4.0354546634
  C         6.6320899766        7.0427804887        3.3240585285
  H         7.5183451153        7.1103565644        4.0025867163
  O         6.4921259472        6.1579139584        2.4473334656
  O         5.8014508194        7.8970951585        3.5804466065
  C         4.7468288793        5.8510846562        6.9391041765
  H         5.6837062732        5.7110173508        7.4566454645
  O         4.3315486404        4.9881730889        6.0840680113
  O         4.1390624477        6.9214380767        7.1338855679
  C         7.5642974957        1.7429307679        7.1823006621
  H         8.1116275708        2.6102062210        7.6466333920
  O         6.7423080014        2.0330978891        6.2208765696
  O         7.8434776238        0.5800715711        7.5931108165
     227
 i =        1, time =        1.000, E =       -47.7254808386
 Cd        -8.6193633468        0.4797168329        3.4771547898
 Cd        -5.8715248633       -0.2571173882        7.1144299042
 Cd        -8.4082953375       -2.1541491625        0.3852184388
 Cd        -6.8927677013       -3.2918176529        3.9610812514
 Cd        -3.6901754628       -3.7004332767        7.3824834847
 Cd        -6.4420156765       -6.2358304322        0.4642037098
 Cd        -4.3123484870       -6.8297208392        3.9052329489
 Cd        -6.1164400570        3.8609643576        2.9055698765
 Cd        -3.6066677488        2.8812594616        6.5905122419
 Cd        -6.7534947653        1.1872761058       -0.3192497669
 Cd        -4.0444992024        0.0755267137        3.0502329199
 Cd        -1.7741623184       -0.3125641748        6.8337334835
 Cd        -6.3661712344       -1.4623866957       -3.4402166545
 Cd        -4.3613654523       -3.1217913655       -0.1745404354
 Cd        -2.2426382310       -3.6215522463        3.6336541228
 Cd         0.1787605793       -3.9616074036        7.0370023362
 Cd        -4.2694454147       -5.9883450837       -2.9988913392
 Cd        -2.2486761622       -6.7967298797        0.6791223479
 Cd         0.0678080052       -7.3030387416        3.8542449575
 Cd        -4.0804374673        7.4119274112        2.4182713870
 Cd        -1.6108545384        6.4878963461        6.2510712410
 Cd        -4.3326453263        4.8128269881       -0.6770074839
 Cd        -1.8304512750        3.6696160740        3.1589533078
 Cd         0.4898126389        3.1632897571        6.7206824135
 Cd        -4.5997694944        2.0001818509       -4.0890120954
 Cd        -2.1629567380        1.0181341277       -0.4517960851
 Cd         0.1384558416       -0.0681922705        3.1344811457
 Cd         2.6424251843       -0.6635624130        6.8960660923
 Cd        -4.1542159898       -0.5351635392       -6.9611508845
 Cd        -2.2032186925       -1.8491220820       -3.4900325777
 Cd         0.0358079056       -2.8475806300       -0.0251093718
 Cd         2.4397027676       -3.8215592033        3.5304875040
 Cd         4.5937997627       -4.2152443127        6.5947717895
 Cd        -2.6317387330       -4.5700480572       -6.0786027012
 Cd        -0.3609673763       -6.1212224100       -3.0631759230
 Cd         1.9863792180       -6.8524666662       -0.0374854752
 Cd         4.3578264735       -7.5051598954        3.0974642921
 Cd        -2.4320731254        8.2867347394       -1.2004602972
 Cd         0.1211459868        6.7911725843        2.0748408398
 Cd         2.2582163359        6.3879179484        5.9827918471
 Cd        -2.2740708587        5.5405707429       -4.1121841796
 Cd         0.1544482616        4.6149133155       -0.9824240047
 Cd         2.6165661429        3.7533183551        2.4609907622
 Cd         4.3940028115        2.5016013350        5.6447345775
 Cd        -2.3865289445        3.0938572750       -7.5398712173
 Cd        -0.1312673315        1.7710086652       -4.3474588450
 Cd         2.1532770203        0.8600349240       -0.9632443292
 Cd         4.3035253850       -0.4402230807        2.5247662361
 Cd         6.4921083011       -0.6517284682        6.0105325644
 Cd         0.4042828574       -0.5927886435       -7.0621309373
 Cd         2.1514058098       -1.8411298386       -3.9633824298
 Cd         4.1300726659       -2.9780520447       -0.5482624582
 Cd         6.9198676975       -3.7969989603        2.8854813722
 Cd         1.0696866068       -4.7693407894       -6.7906383202
 Cd         3.6507095463       -5.7625880853       -3.6177961373
 Cd         5.7330728344       -6.5641039753       -0.3328698130
 Cd         2.4551743445        8.1223110243       -1.1567654353
 Cd         4.4054678922        7.2897811651        1.7948914284
 Cd         2.3804256840        5.2453143622       -4.8087720606
 Cd         4.8190935271        4.7184830922       -1.4285005807
 Cd         6.7583058199        3.8401598471        2.0311673688
 Cd         2.6218275884        2.7830106762       -7.7033973944
 Cd         4.8494850793        1.7846838214       -4.5231119413
 Cd         6.7278435881        1.0650713171       -0.9631815835
 Cd         8.8867647750        0.4156456369        2.4347893980
 Cd         4.3619436152       -0.9226384839       -7.7308765988
 Cd         6.7428594483       -1.9756625202       -4.2012911504
 Cd         8.5291495418       -2.6208323343       -0.2528757261
 Se        -9.0545120719        0.2427086454        0.9183855989
 Se        -6.3726885972       -0.6565710383        4.4182677195
 Se        -3.9345958397       -1.3490491571        8.2962294465
 Se        -6.5830540097       -3.7425226751        1.3880572903
 Se        -4.5789675043       -4.2748355417        4.8596668176
 Se        -4.6121938072       -7.7762532201        1.5329255349
 Se        -6.6420031076        3.9854541668        0.4578051385
 Se        -4.0717920677        2.6208325012        3.9141998426
 Se        -1.6333681954        2.0116987801        7.9247092011
 Se        -6.7113919452        0.9827361787       -3.1654035957
 Se        -4.4069623024       -0.2111588893        0.3949680494
 Se        -2.0531013715       -1.1153453828        4.2592850540
 Se         0.4059989335       -1.5662548979        8.0647827384
 Se        -4.4159293532       -3.1298766524       -2.8045739724
 Se        -2.2374549468       -4.0915191142        0.9471953703
 Se         0.1530770089       -4.8127075518        4.4857240081
 Se        -2.4165881299       -7.4202583192       -2.0539889068
 Se        -0.0670007850       -7.8788136764        1.3096056254
 Se        -4.5517698435        7.5947654358       -0.0124820855
 Se        -1.8465658707        6.3632636758        3.5399360515
 Se         0.4036690625        5.8261779710        7.5854829011
 Se        -4.4657550757        4.5538791701       -3.3488952790
 Se        -2.0808956216        3.7152259594        0.3431274208
 Se         0.4981263508        2.6970434937        3.7285884356
 Se         2.7717387502        1.9957988220        7.6258362669
 Se        -4.6128545713        2.0746077933       -6.9048512956
 Se        -2.2787778534        0.8534316333       -3.1260948335
 Se         0.0145386369       -0.1632385999        0.3853873654
 Se         2.3130005492       -1.3189243616        3.9988723944
 Se         4.8630915045       -1.8843441460        7.7350567721
 Se        -2.0702520766       -1.9663735381       -6.4602931477
 Se        -0.0447826488       -3.1597962794       -2.8087585511
 Se         2.2323066074       -4.2313263857        0.7808926636
 Se         4.8361827753       -4.9529644718        4.0967163904
 Se        -0.7551660515       -6.2844521770       -5.8413723867
 Se         1.9249715061       -7.4786861518       -2.6074945023
 Se         4.2593989372       -8.3788516055        0.7365342153
 Se         0.0357173994        7.3684903232       -0.4911160567
 Se         2.3807881475        6.5252074292        3.1423064758
 Se         0.0436883045        4.4287046057       -3.5939102293
 Se         2.5162606351        3.6274651223       -0.0567425223
 Se         4.7725574494        2.4662090273        3.1253606391
 Se         0.0455207008        1.9296672713       -6.9703312083
 Se         2.2756647689        0.7647351201       -3.6569568454
 Se         4.3765067867       -0.2854011266       -0.0176821089
 Se         6.9675895739       -1.1294903735        3.5583037132
 Se         2.2367403935       -2.2679555469       -6.6837120423
 Se         4.3735072357       -3.1974285543       -3.2155040319
 Se         6.4330356698       -4.1116385364        0.4131337786
 Se         4.8511913647        7.5523510417       -0.7457027837
 Se         4.8772450572        4.5488596030       -4.0120661409
 Se         7.0853117898        3.5933286471       -0.6427558429
 Se         4.7813605806        1.5262974705       -7.5555152215
 Se         6.9182407679        0.6112027475       -3.7072811057
 Se         9.1066728312       -0.0628189167       -0.0921249023
  C         6.9966389067       -6.9496245083       -2.8612795385
  H         7.7649322095       -7.1224747738       -3.6684216540
  O         5.8435313507       -6.4670697933       -3.1398721878
  O         7.2878873849       -7.2737357288       -1.6931115733
  C         3.3951617510       -6.2671882226       -6.9490643639
  H         4.3444066225       -6.8936096686       -7.0753272229
  O         3.0186242929       -5.7905057709       -5.7815283501
  O         2.6173489798       -6.1684471754       -7.9236744529
  C         6.3106237745       -2.9079229662       -7.4908134898
  H         7.1299137504       -3.7048862282       -7.4466889051
  O         6.0084303079       -2.3179032409       -6.3471564651
  O         5.9388932490       -2.4738568733       -8.6121650857
  C         8.9772753232       -3.3709243088       -3.4295640468
  H         9.9250180562       -3.8774829974       -3.1826003730
  O         8.5677613670       -3.4145308911       -4.6044037388
  O         8.2713397318       -2.6966643468       -2.5198090609
  C         9.7979110662       -4.6251367113        2.1809332029
  H        10.6408655401       -5.3318691344        2.3887999993
  O         9.7466538190       -4.1800483853        0.9924451627
  O         9.0278413144       -4.5677924407        3.1869207845
  C        -2.8216659021       -8.8882670659        5.3598608562
  H        -2.4154187803       -9.9024293192        5.4343946394
  O        -1.9846551057       -7.9303315231        5.0420271453
  O        -4.0904092159       -8.7268885342        5.4040918273
  C         2.9968767053       -8.6914420956        5.2874545779
  H         2.6967725338       -9.0398269484        6.2934215078
  O         1.9991214988       -8.3574210557        4.5591993658
  O         4.2233540618       -8.6000069209        4.9146884426
  C         2.8792133041       -5.7053388113        8.2322882517
  H         2.3955873073       -6.3773024893        8.9303283437
  O         2.2187465413       -4.8085734947        7.6158576468
  O         4.1498437149       -5.9030308276        8.1530261141
  C        -2.5346711605       -5.9173684251        8.5217987944
  H        -2.0052498086       -6.7390725628        9.0096019785
  O        -1.9215106536       -5.2577314337        7.5981767387
  O        -3.6522168286       -5.5079306645        8.8922474541
  C        -6.8630324458        2.3027339143        7.3889696874
  H        -7.2086193538        3.3071349018        7.3885257928
  O        -5.6209332441        2.1588526391        7.5332923171
  O        -7.6690370256        1.3699166792        7.1998857964
  C        -4.1170527088        6.2826976222        7.2280271444
  H        -5.2418933127        6.2896177269        7.3832000201
  O        -3.5262286494        5.2288280861        6.7735361334
  O        -3.5906226643        7.4670456179        7.3176716848
  C        -6.2566621102        7.1460972440        4.0781535134
  H        -7.2111390447        7.1649409639        4.6689854642
  O        -5.8087141066        6.0476183627        3.6276300713
  O        -5.6121133286        8.2202848840        3.8482815965
  C        -9.2740365325        2.9616534280        4.4605332988
  H        -9.7855372140        3.8838940690        4.7760086716
  O        -8.0584797980        3.0117694605        4.1190744690
  O       -10.0805516419        1.9787930283        4.3919864070
  C        -9.6031540536       -3.5281491622        4.2550923239
  H       -10.5971720209       -3.6001750875        4.7566807035
  O        -9.3827375912       -2.7226771243        3.2942881483
  O        -8.6779385402       -4.3012618010        4.7626921753
  C        -5.4081407796       -6.0791119810       -6.1560643225
  H        -6.0546960796       -6.5859836395       -6.8890942905
  O        -5.3105788943       -6.5036906071       -4.9647050740
  O        -4.7978216189       -5.0925321379       -6.6849938473
  C        -7.4874149193       -7.2703774354       -1.8348272957
  H        -7.8388434959       -7.7173330376       -2.7530342297
  O        -6.3884370383       -6.5546460492       -1.8839286788
  O        -8.0711989814       -7.4404932952       -0.7454957064
  C        -9.2560991094       -3.4270657369       -2.1219184118
  H        -9.5270787848       -4.0663584857       -2.9594189931
  O        -8.1695104137       -2.7551985218       -2.2725192690
  O        -9.8237706915       -3.4936965220       -1.0089426652
  C        -6.7206378777       -1.5102609114       -7.0044718614
  H        -7.7450574417       -1.9674181007       -7.1698505571
  O        -6.3193197061       -1.2782108188       -5.7986662084
  O        -6.0627000192       -1.2633829456       -8.0151300686
  C        -1.9627762804        5.6954600282       -7.4851935568
  H        -1.7770888886        6.7764005651       -7.4923242406
  O        -2.4609414806        5.1863428832       -6.4084748935
  O        -1.7565603096        5.0397558493       -8.5278786487
  C        -1.7167639907        9.0073655302       -3.7839279760
  H        -1.3493405476        9.2660238074       -4.8465614694
  O        -1.7703101040        7.7190496348       -3.5243536425
  O        -1.9638316607        9.8890663217       -2.9403712455
  C         2.5061275450        8.6537631301       -4.1272930986
  H         2.7131102182        9.0638249498       -5.0476060874
  O         2.0944643178        7.4528102070       -4.0306859575
  O         2.6625724477        9.4108522118       -3.1547722088
  C         1.7410065503        5.3672260775       -8.1967478388
  H         1.4358383610        6.4416008070       -8.3632925476
  O         2.2781490361        5.0761305670       -7.0401407978
  O         1.5315598630        4.4829209422       -9.0171264969
  C         9.4766661444        2.6096024377        3.9000589584
  H         9.6131090334        3.4671477718        4.5843902861
  O         8.5276389126        2.7171594045        3.0489272984
  O        10.1881093223        1.5398495508        4.0326516849
  C         6.6325800134        7.0381408712        3.3282727563
  H         7.5082674956        7.1289998248        4.0070788575
  O         6.4940318905        6.1600637032        2.4464883048
  O         5.7950368447        7.9027201311        3.5808162209
  C         4.7448135787        5.8524102143        6.9352382927
  H         5.7085862008        5.7040540943        7.4370666698
  O         4.3281930176        4.9883874738        6.0812712172
  O         4.1450945987        6.9221975067        7.1366523581
  C         7.5602993692        1.7452889034        7.1877003843
  H         8.1158840311        2.6116602203        7.6593692779
  O         6.7454587174        2.0299802128        6.2242676149
  O         7.8431974273        0.5819054860        7.5890057277
     227
 i =        2, time =        2.000, E =       -47.7606437328
 Cd        -8.6170803351        0.4786158097        3.4767063744
 Cd        -5.8707211469       -0.2573443163        7.1137840743
 Cd        -8.4091846191       -2.1552335437        0.3836069972
 Cd        -6.8898309866       -3.2939757687        3.9620700936