     227
 i =        0, time =        0.000, E =       -17.2626884967
 Cd        -8.6216924880        0.4810107428        3.4775887729
 Cd        -5.8723589632       -0.2566559957        7.1151373767
 Cd        -8.4076147924       -2.1531404527        0.3867588804
 Cd        -6.8957642261       -3.2896665849        3.9600318291
 Cd        -3.6930098048       -3.6992689615        7.3819491709
 Cd        -6.4429261463       -6.2347087238        0.4622469067
 Cd        -4.3123952394       -6.8285875372        3.9039095072
 Cd        -6.1141073353        3.8626235599        2.9066844924
 Cd        -3.6048790416        2.8797284733        6.5917986711
 Cd        -6.7531255596        1.1841266196       -0.3182182747
 Cd        -4.0437606329        0.0729837467        3.0511954168
 Cd        -1.7753257667       -0.3121054857        6.8316599018
 Cd        -6.3661028473       -1.4630135273       -3.4383357626
 Cd        -4.3602814436       -3.1214810613       -0.1759283953
 Cd        -2.2424276819       -3.6242998489        3.6335413818
 Cd         0.1757294635       -3.9625201566        7.0364714760
 Cd        -4.2692200317       -5.9860442556       -3.0005266361
 Cd        -2.2482225396       -6.7972628816        0.6786391664
 Cd         0.0669003827       -7.3030327295        3.8545421700
 Cd        -4.0792754193        7.4105475565        2.4175118797
 Cd        -1.6116442377        6.4880648240        6.2478272306
 Cd        -4.3308002626        4.8127262164       -0.6762739309
 Cd        -1.8326132452        3.6694977750        3.1598212265
 Cd         0.4939817277        3.1637060931        6.7202662426
 Cd        -4.5980154021        1.9988297698       -4.0880170010
 Cd        -2.1651194586        1.0165564496       -0.4536921834
 Cd         0.1376109507       -0.0659106884        3.1336818174
 Cd         2.6419074521       -0.6636939286        6.8958319365
 Cd        -4.1515129292       -0.5348426091       -6.9620217917
 Cd        -2.2012490343       -1.8491984656       -3.4894107829
 Cd         0.0359311218       -2.8494155653       -0.0264680683
 Cd         2.4407298775       -3.8224684908        3.5289587884
 Cd         4.5907434619       -4.2169180472        6.5928471603
 Cd        -2.6321953796       -4.5685798778       -6.0773989300
 Cd        -0.3638438279       -6.1221236347       -3.0620735359
 Cd         1.9882729153       -6.8506852632       -0.0376753302
 Cd         4.3604701588       -7.5063202656        3.0981086138
 Cd        -2.4313710890        8.2839908015       -1.2010761441
 Cd         0.1210964618        6.7915494583        2.0748938605
 Cd         2.2602783261        6.3879934074        5.9824457591
 Cd        -2.2743307721        5.5403016700       -4.1096429978
 Cd         0.1552258413        4.6164378819       -0.9814446932
 Cd         2.6173372932        3.7540356816        2.4616712460
 Cd         4.3934694910        2.5024270436        5.6448470259
 Cd        -2.3839877703        3.0961459608       -7.5397423510
 Cd        -0.1308699873        1.7716472388       -4.3458913396
 Cd         2.1522040622        0.8595996928       -0.9600505658
 Cd         4.3027041934       -0.4425155449        2.5248589789
 Cd         6.4943132815       -0.6514444341        6.0110723312
 Cd         0.4032906214       -0.5920449882       -7.0625722312
 Cd         2.1504065746       -1.8410095193       -3.9631978812
 Cd         4.1282053355       -2.9764966895       -0.5499119195
 Cd         6.9189885741       -3.8001688729        2.8840486736
 Cd         1.0693858855       -4.7693596381       -6.7909688629
 Cd         3.6529341800       -5.7620820022       -3.6150795142
 Cd         5.7341856059       -6.5625995016       -0.3323817960
 Cd         2.4532379782        8.1225833618       -1.1556872380
 Cd         4.4025673150        7.2904811152        1.7928276254
 Cd         2.3800547108        5.2453457502       -4.8107637235
 Cd         4.8184663347        4.7191125514       -1.4277792117
 Cd         6.7589411702        3.8390778732        2.0295448973
 Cd         2.6210634084        2.7844913241       -7.7035228004
 Cd         4.8495943395        1.7843685348       -4.5225056138
 Cd         6.7261500983        1.0662237140       -0.9642295531
 Cd         8.8881450478        0.4141445330        2.4369093904
 Cd         4.3615782352       -0.9213178924       -7.7328888960
 Cd         6.7438649008       -1.9767569930       -4.2031112584
 Cd         8.5272445020       -2.6218905711       -0.2551455218
 Se        -9.0557725106        0.2424574140        0.9180313808
 Se        -6.3745872764       -0.6570220647        4.4225742627
 Se        -3.9358548519       -1.3506397678        8.2925868769
 Se        -6.5830028390       -3.7408669090        1.3890860046
 Se        -4.5802302415       -4.2716541219        4.8585926421
 Se        -4.6110671623       -7.7792240778        1.5343213278
 Se        -6.6407812351        3.9866809498        0.4586064126
 Se        -4.0705866514        2.6241591830        3.9150270775
 Se        -1.6315747320        2.0143859544        7.9219454430
 Se        -6.7106235468        0.9827493806       -3.1628202938
 Se        -4.4077684895       -0.2106461950        0.3970531668
 Se        -2.0534879979       -1.1190641497        4.2604482105
 Se         0.4069246601       -1.5676855049        8.0617057342
 Se        -4.4126107232       -3.1307459794       -2.8028288282
 Se        -2.2371864822       -4.0884616040        0.9473336128
 Se         0.1541797359       -4.8148952714        4.4843326207
 Se        -2.4147106009       -7.4199706225       -2.0529393442
 Se        -0.0662571417       -7.8800811154        1.3078284855
 Se        -4.5519687636        7.5920037884       -0.0122560791
 Se        -1.8482840651        6.3647212661        3.5390459072
 Se         0.4006735392        5.8241498358        7.5878867146
 Se        -4.4655945585        4.5529209660       -3.3484418515
 Se        -2.0798083538        3.7153034916        0.3451575142
 Se         0.4973892782        2.6967113851        3.7286137790
 Se         2.7724753484        1.9958260876        7.6298945277
 Se        -4.6126224962        2.0736182894       -6.9031574659
 Se        -2.2770211290        0.8531533747       -3.1284312065
 Se         0.0138865169       -0.1636477002        0.3858468104
 Se         2.3115473387       -1.3198431962        4.0017354986
 Se         4.8624545925       -1.8855864388        7.7371297607
 Se        -2.0700877949       -1.9675257511       -6.4603372509
 Se        -0.0447057629       -3.1582708631       -2.8090856920
 Se         2.2343306950       -4.2299664240        0.7817840723
 Se         4.8342987615       -4.9516929708        4.0974643468
 Se        -0.7556003326       -6.2829108386       -5.8406699955
 Se         1.9243057511       -7.4784768035       -2.6074198353
 Se         4.2543989663       -8.3809591814        0.7363809319
 Se         0.0386925703        7.3677075300       -0.4939635450
 Se         2.3791568525        6.5289221229        3.1400383851
 Se         0.0465974103        4.4270318221       -3.5936563407
 Se         2.5167269427        3.6273521599       -0.0581806204
 Se         4.7705604635        2.4670139639        3.1233546104
 Se         0.0435933033        1.9323944164       -6.9695738842
 Se         2.2733127965        0.7623703678       -3.6584263160
 Se         4.3816175435       -0.2841549253       -0.0177063702
 Se         6.9670500347       -1.1290204494        3.5565582379
 Se         2.2410869402       -2.2702007814       -6.6798205275
 Se         4.3723294721       -3.1971869108       -3.2130677403
 Se         6.4331938555       -4.1098532443        0.4136420186
 Se         4.8503033307        7.5509093293       -0.7463548497
 Se         4.8776288797        4.5477652435       -4.0091414448
 Se         7.0830986217        3.5950723552       -0.6434567968
 Se         4.7810064642        1.5273410534       -7.5566303287
 Se         6.9188050062        0.6130038217       -3.7081238627
 Se         9.1066871843       -0.0609359671       -0.0919647969
  C         6.9955771113       -6.9586634775       -2.8583426301
  H         7.7780160969       -7.1271873265       -3.6573399650
  O         5.8389952916       -6.4652991204       -3.1445809228
  O         7.2920676004       -7.2683568805       -1.6893132711
  C         3.3939431960       -6.2668607509       -6.9513074648
  H         4.3245440932       -6.8689211647       -7.0591687882
  O         3.0202466073       -5.7860511295       -5.7843136273
  O         2.6220129789       -6.1746538788       -7.9242101403
  C         6.3116555909       -2.9071154185       -7.4921130606
  H         7.0978863851       -3.7212906458       -7.4285512081
  O         6.0096715894       -2.3219711192       -6.3505932827
  O         5.9403243477       -2.4750431756       -8.6116316973
  C         8.9837561036       -3.3697375837       -3.4349055328
  H         9.9249943929       -3.8864043165       -3.1840078659
  O         8.5659407989       -3.4209184445       -4.6048832464
  O         8.2714489672       -2.6971151254       -2.5207012617
  C         9.7902109758       -4.6282247391        2.1768529346
  H        10.6284324694       -5.3337138149        2.3552924638
  O         9.7484501532       -4.1824896055        0.9942458601
  O         9.0219926648       -4.5705851174        3.1873629795
  C        -2.8252708508       -8.8894178348        5.3653894160
  H        -2.3915771747       -9.8892286280        5.4446685031
  O        -1.9808601030       -7.9304545651        5.0436955975
  O        -4.0908415257       -8.7280019527        5.4030844137
  C         3.0047406823       -8.6887063298        5.2919739424
  H         2.6853413808       -9.0312323512        6.2714246943
  O         1.9985977812       -8.3553887881        4.5599054594
  O         4.2197147413       -8.6069092298        4.9235206312
  C         2.8732291572       -5.7090624943        8.2322507888
  H         2.4095730423       -6.3582442170        8.9295273658
  O         2.2236878889       -4.8031284854        7.6183804854
  O         4.1525405945       -5.8988692439        8.1468427445
  C        -2.5324052264       -5.9090323801        8.5168983878
  H        -2.0058427467       -6.7599986745        9.0204193621
  O        -1.9189018681       -5.2527647032        7.5983339134
  O        -3.6521974131       -5.4981014961        8.8936623702
  C        -6.8661340661        2.3082426882        7.3884767521
  H        -7.2433530482        3.2983326111        7.3747512577
  O        -5.6189307919        2.1553364867        7.5292857639
  O        -7.6694328727        1.3672322100        7.2032576312
  C        -4.1128935570        6.2776012356        7.2258109093
  H        -5.2184092536        6.2949225170        7.4003980339
  O        -3.5215502414        5.2331222329        6.7794929280
  O        -3.5956064510        7.4679880815        7.3184340370
  C        -6.2584500423        7.1467273309        4.0778865765
  H        -7.2018864753        7.1620259062        4.6862261037
  O        -5.8042352338        6.0508881806        3.6277903665
  O        -5.6141473350        8.2227071687        3.8530055117
  C        -9.2670155991        2.9624473135        4.4549609073
  H        -9.7760873251        3.8307467380        4.7753730710
  O        -8.0580447847        3.0137717908        4.1153681461
  O       -10.0869615960        1.9755230626        4.3964141791
  C        -9.5997958208       -3.5202239981        4.2555074891
  H       -10.6284324694       -3.6062117458        4.7363993397
  O        -9.3836198173       -2.7271085544        3.2939504316
  O        -8.6749593009       -4.3055307223        4.7674147240
  C        -5.4063829718       -6.0836320759       -6.1576393485
  H        -6.0390997038       -6.5934387315       -6.8768176703
  O        -5.3157147411       -6.5042627408       -4.9638375967
  O        -4.7997118332       -5.0931497246       -6.6842330004
  C        -7.4812021438       -7.2683192216       -1.8337008205
  H        -7.8430239833       -7.7214409635       -2.7403108931
  O        -6.3847231004       -6.5596142310       -1.8855223803
  O        -8.0870004405       -7.4369608581       -0.7449951352
  C        -9.2637717352       -3.4248031045       -2.1287629167
  H        -9.5435102925       -4.0726156799       -2.9624854104
  O        -8.1685743898       -2.7562864935       -2.2769679175
  O        -9.8293124780       -3.4993302663       -1.0042472880
  C        -6.7198117275       -1.5155721631       -7.0057360974
  H        -7.7266400310       -1.9701098143       -7.1795729881
  O        -6.3208037730       -1.2812141421       -5.7891801227
  O        -6.0546670581       -1.2647410752       -8.0219575549
  C        -1.9610306020        5.6962737072       -7.4797868569
  H        -1.8068881661        6.7616764611       -7.4798700689
  O        -2.4613788677        5.1953402046       -6.4147373301
  O        -1.7592038190        5.0404242691       -8.5376948407
  C        -1.7153677193        9.0065729983       -3.7807068554
  H        -1.3518565997        9.2891789052       -4.8285272378
  O        -1.7735635219        7.7204009534       -3.5311974415
  O        -1.9589811591        9.8892286280       -2.9296575010
  C         2.5176986766        8.6527359013       -4.1276241396
  H         2.7356319561        9.0838176512       -5.0545617483
  O         2.0941304229        7.4607563111       -4.0382054964
  O         2.6632020791        9.4136986823       -3.1567247192
  C         1.7405814703        5.3615037054       -8.2026998584
  H         1.4592813282        6.4433815072       -8.3446733349
  O         2.2712544771        5.0744229803       -7.0359036782
  O         1.5374971892        4.4786315137       -9.0204193621
  C         9.4791869119        2.6134878200        3.9079418032
  H         9.6264681644        3.4611325178        4.5867541287
  O         8.5294682966        2.7206869475        3.0468687327
  O        10.1884170796        1.5361363159        4.0354546634
  C         6.6320899766        7.0427804887        3.3240585285
  H         7.5183451153        7.1103565644        4.0025867163
  O         6.4921259472        6.1579139584        2.4473334656
  O         5.8014508194        7.8970951585        3.5804466065
  C         4.7468288793        5.8510846562        6.9391041765
  H         5.6837062732        5.7110173508        7.4566454645
  O         4.3315486404        4.9881730889        6.0840680113
  O         4.1390624477        6.9214380767        7.1338855679
  C         7.5642974957        1.7429307679        7.1823006621
  H         8.1116275708        2.6102062210        7.6466333920
  O         6.7423080014        2.0330978891        6.2208765696
  O         7.8434776238        0.5800715711        7.5931108165
     227
 i =        1, time =        1.000, E =       -17.2721673836
 Cd        -8.6193433274        0.4796499881        3.4771775238
 Cd        -5.8715567237       -0.2571738019        7.1143923101
 Cd        -8.4082335687       -2.1541522632        0.3852210943
 Cd        -6.8927300804       -3.2917974806        3.9610953856
 Cd        -3.6901786932       -3.7004118650        7.3823849776
 Cd        -6.4419883306       -6.2357646285        0.4642644363
 Cd        -4.3123476605       -6.8296301018        3.9052389951
 Cd        -6.1163986677        3.8609341667        2.9055873651
 Cd        -3.6066432720        2.8812398913        6.5904083015
 Cd        -6.7534361787        1.1872444283       -0.3192278364
 Cd        -4.0444379329        0.0755193327        3.0501856620
 Cd        -1.7741843387       -0.3125882280        6.8335946384
 Cd        -6.3661101799       -1.4624607295       -3.4401801912
 Cd        -4.3613666267       -3.1217771031       -0.1745477237
 Cd        -2.2426126167       -3.6215839149        3.6336127861
 Cd         0.1786979899       -3.9616007668        7.0369459207
 Cd        -4.2693958070       -5.9882238847       -2.9988696782
 Cd        -2.2487231472       -6.7966279144        0.6791531279
 Cd         0.0677830279       -7.3030143860        3.8542400260
 Cd        -4.0802978151        7.4119281505        2.4182935391
 Cd        -1.6108125857        6.4879409967        6.2509646853
 Cd        -4.3325457960        4.8128167826       -0.6769565592
 Cd        -1.8304031335        3.6696066598        3.1589354034
 Cd         0.4898068772        3.1633393361        6.7205424039
 Cd        -4.5996258892        2.0001227523       -4.0890261088
 Cd        -2.1629085547        1.0181375916       -0.4517585641
 Cd         0.1384312456       -0.0681630771        3.1344193835
 Cd         2.6424401544       -0.6635571644        6.8959138196
 Cd        -4.1541039632       -0.5351500291       -6.9611319433
 Cd        -2.2031875927       -1.8490946166       -3.4900384275
 Cd         0.0358052715       -2.8475001059       -0.0251012374
 Cd         2.4397155310       -3.8215752889        3.5304625093
 Cd         4.5938307963       -4.2152088210        6.5946963436
 Cd        -2.6317129560       -4.5699775653       -6.0785498421
 Cd        -0.3609620048       -6.1210690535       -3.0631418622
 Cd         1.9864105164       -6.8523588277       -0.0374596631
 Cd         4.3578662004       -7.5050309469        3.0974014453
 Cd        -2.4320378870        8.2867404419       -1.2003841028
 Cd         0.1211452881        6.7911552321        2.0747701970
 Cd         2.2581260141        6.3879409600        5.9826356119
 Cd        -2.2740296831        5.5405625174       -4.1121414076
 Cd         0.1544562676        4.6148741637       -0.9823412831
 Cd         2.6165210833        3.7533659705        2.4610482966
 Cd         4.3939395254        2.5015433488        5.6447164556
 Cd        -2.3864653543        3.0937318180       -7.5398982343
 Cd        -0.1312618037        1.7709373784       -4.3474202984
 Cd         2.1531815970        0.8600341509       -0.9632078863
 Cd         4.3034903411       -0.4402488193        2.5248262224
 Cd         6.4920387664       -0.6517619086        6.0105164216
 Cd         0.4042411158       -0.5927854697       -7.0621409168
 Cd         2.1513198292       -1.8411126577       -3.9633390896
 Cd         4.1299943551       -2.9780198875       -0.5482383062
 Cd         6.9198277392       -3.7969711871        2.8855477315
 Cd         1.0695835708       -4.7692027331       -6.7906795282
 Cd         3.6506455420       -5.7625239410       -3.6177202284
 Cd         5.7329654790       -6.5640193469       -0.3327848969
 Cd         2.4551028887        8.1223150948       -1.1566459510
 Cd         4.4053800003        7.2897989740        1.7948356506
 Cd         2.3804080083        5.2452251380       -4.8087147246
 Cd         4.8189845548        4.7184687649       -1.4284021497
 Cd         6.7582476023        3.8401611015        2.0311443114
 Cd         2.6217733632        2.7829351847       -7.7033836044
 Cd         4.8493328197        1.7846865244       -4.5231438988
 Cd         6.7277293989        1.0650012240       -0.9631209212
 Cd         8.8867479901        0.4155885423        2.4348069972
 Cd         4.3618190275       -0.9226562123       -7.7309218295
 Cd         6.7427833250       -1.9756297163       -4.2012668407
 Cd         8.5291400057       -2.6208096447       -0.2527985777
 Se        -9.0547705605        0.2428948739        0.9183086789
 Se        -6.3727585401       -0.6564962308        4.4183112005
 Se        -3.9345240062       -1.3489502786        8.2965414091
 Se        -6.5831086219       -3.7425430979        1.3880571462
 Se        -4.5790553657       -4.2748698484        4.8597458709
 Se        -4.6122351545       -7.7765789429        1.5328410044
 Se        -6.6422618994        3.9855430323        0.4576693851
 Se        -4.0719417460        2.6208407799        3.9143028530
 Se        -1.6333055877        2.0117620620        7.9251110037
 Se        -6.7117009006        0.9829129869       -3.1654304937
 Se        -4.4070654544       -0.2111924095        0.3949003165
 Se        -2.0531127750       -1.1153306400        4.2593837770
 Se         0.4059966429       -1.5661696788        8.0650612827
 Se        -4.4160584628       -3.1300005327       -2.8046749730
 Se        -2.2374243086       -4.0915803293        0.9472092383
 Se         0.1530481720       -4.8127358398        4.4858028027
 Se        -2.4165631980       -7.4206062439       -2.0539471358
 Se        -0.0669309059       -7.8791369455        1.3095607016
 Se        -4.5521294677        7.5948379506       -0.0126241936
 Se        -1.8467718747        6.3633059686        3.5400933857
 Se         0.4037059464        5.8261553751        7.5858851341
 Se        -4.4660377511        4.5539624171       -3.3489426951
 Se        -2.0809643901        3.7152392282        0.3431663550
 Se         0.4982248190        2.6969923174        3.7286907660
 Se         2.7717885015        1.9958613932        7.6261833245
 Se        -4.6131778898        2.0747471138       -6.9049055371
 Se        -2.2788808051        0.8535002248       -3.1261058074
 Se         0.0145679425       -0.1632305939        0.3854039509
 Se         2.3129803696       -1.3188910559        3.9990202981
 Se         4.8631602519       -1.8843050985        7.7353887983
 Se        -2.0701904855       -1.9664159636       -6.4603712022
 Se        -0.0447123435       -3.1599273982       -2.8087819833
 Se         2.2323134591       -4.2314457042        0.7809343315
 Se         4.8362345226       -4.9530968234        4.0967239316
 Se        -0.7551528429       -6.2848204905       -5.8413903796
 Se         1.9250061385       -7.4790191279       -2.6076251474
 Se         4.2593623166       -8.3791885038        0.7363996961
 Se         0.0356431755        7.3686125262       -0.4913055717
 Se         2.3809179672        6.5252116313        3.1424956280
 Se         0.0437316327        4.4288087231       -3.5940039885
 Se         2.5163689797        3.6274420859       -0.0568793081
 Se         4.7727030934        2.4661650972        3.1253242414
 Se         0.0455161952        1.9299509180       -6.9705132238
 Se         2.2758171917        0.7648383471       -3.6570498590
 Se         4.3766446302       -0.2853727221       -0.0178183252
 Se         6.9677001628       -1.1294557202        3.5582269059
 Se         2.2369852962       -2.2681793333       -6.6837722487
 Se         4.3737137296       -3.1974806514       -3.2156440859
 Se         6.4331299288       -4.1116870213        0.4129611677
 Se         4.8515537034        7.5524076822       -0.7459023313
 Se         4.8774516512        4.5489709637       -4.0122477673
 Se         7.0855825849        3.5934737411       -0.6428659039
 Se         4.7817020916        1.5264385230       -7.5555408034
 Se         6.9185562660        0.6112140485       -3.7073493612
 Se         9.1068698376       -0.0627069619       -0.0923220243
  C         6.9966699903       -6.9497943403       -2.8612716690
  H         7.7649322095       -7.1224747738       -3.6684216540
  O         5.8439956205       -6.4672328214       -3.1400269301
  O         7.2886061219       -7.2741487567       -1.6936892749
  C         3.3950861379       -6.2672811903       -6.9491562765
  H         4.3444066225       -6.8936096686       -7.0753272229
  O         3.0187926642       -5.7908402192       -5.7820418702
  O         2.6176864404       -6.1688603378       -7.9239571294
  C         6.3106270611       -2.9078659850       -7.4910042534
  H         7.1299137504       -3.7048862282       -7.4466889051
  O         6.0084947122       -2.3181604360       -6.3474999584
  O         5.9393132528       -2.4742093707       -8.6124326717
  C         8.9774116265       -3.3708899626       -3.4296308345
  H         9.9250180562       -3.8774829974       -3.1826003730
  O         8.5682320380       -3.4148526697       -4.6045886756
  O         8.2716835776       -2.6967178983       -2.5200975167
  C         9.7980399282       -4.6251872786        2.1809843194
  H        10.6408655401       -5.3318691344        2.3887999993
  O         9.7470891962       -4.1804737841        0.9926212874
  O         9.0285977285       -4.5681159521        3.1870431504
  C        -2.8217172866       -8.8884019156        5.3598599702
  H        -2.4154187803       -9.9024293192        5.4343946394
  O        -1.9847624861       -7.9305980926        5.0422899799
  O        -4.0904471969       -8.7273658895        5.4043823898
  C         2.9969122856       -8.6915843298        5.2874325483
  H         2.6967725338       -9.0398269484        6.2934215078
  O         1.9993954466       -8.3578327374        4.5594140219
  O         4.2233394140       -8.6006768372        4.9156701498
  C         2.8792850637       -5.7053294826        8.2323983061
  H         2.3955873073       -6.3773024893        8.9303283437
  O         2.2190533536       -4.8088394674        7.6162900140
  O         4.1498185959       -5.9034610343        8.1535505885
  C        -2.5347043375       -5.9173522126        8.5219627960
  H        -2.0052498086       -6.7390725628        9.0096019785
  O        -1.9213900867       -5.2582843898        7.5983195368
  O        -3.6522351679       -5.5083813911        8.8927163696
  C        -6.8630604892        2.3027118759        7.3891567425
  H        -7.2086193538        3.3071349018        7.3885257928
  O        -5.6213142155        2.1590699507        7.5336676765
  O        -7.6694878400        1.3702333770        7.1999438943
  C        -4.1170083362        6.2827818028        7.2281569773
  H        -5.2418933127        6.2896177269        7.3832000201
  O        -3.5266632320        5.2290344961        6.7738048980
  O        -3.5910233098        7.4672895276        7.3179951160
  C        -6.2567260591        7.1462128072        4.0781054336
  H        -7.2111390447        7.1649409639        4.6689854642
  O        -5.8089884151        6.0479014553        3.6278755405
  O        -5.6127553378        8.2206994242        3.8487482070
  C        -9.2741822838        2.9617355038        4.4604888197
  H        -9.7855372140        3.8838940690        4.7760086716
  O        -8.0587929372        3.0118658879        4.1192622465
  O       -10.0810805421        1.9792643878        4.3922116772
  C        -9.6032537951       -3.5282055601        4.2551516042
  H       -10.5971720209       -3.6001750875        4.7566807035
  O        -9.3831962253       -2.7227625087        3.2942776519
  O        -8.6786774411       -4.3017165393        4.7630186167
  C        -5.4081387786       -6.0792089174       -6.1561678373
  H        -6.0546960796       -6.5859836395       -6.8890942905
  O        -5.3110099043       -6.5040430107       -4.9652265003
  O        -4.7984020536       -5.0927294887       -6.6852750463
  C        -7.4874776010       -7.2705331443       -1.8348009348
  H        -7.8388434959       -7.7173330376       -2.7530342297
  O        -6.3887195292       -6.5549405596       -1.8842847604
  O        -8.0716486546       -7.4408682214       -0.7458046032
  C        -9.2562416394       -3.4270119180       -2.1219641306
  H        -9.5270787848       -4.0663584857       -2.9594189931
  O        -8.1697881702       -2.7553800658       -2.2726574214
  O        -9.8241699525       -3.4939478877       -1.0091931615
  C        -6.7206952852       -1.5101681730       -7.0045744186
  H        -7.7450574417       -1.9674181007       -7.1698505571
  O        -6.3197383066       -1.2781469584       -5.7990451978
  O        -6.0632986879       -1.2634981189       -8.0155021627
  C        -1.9628819134        5.6954842519       -7.4852930295
  H        -1.7770888886        6.7764005651       -7.4923242406
  O        -2.4611398234        5.1866975834       -6.4087392293
  O        -1.7563938144        5.0404250734       -8.5283306414
  C        -1.7168680174        9.0074812608       -3.7839167076
  H        -1.3493405476        9.2660238074       -4.8465614694
  O        -1.7700809309        7.7195064491       -3.5245843172
  O        -1.9637579897        9.8895202233       -2.9407916676
  C         2.5062183339        8.6538635267       -4.1272910897
  H         2.7131102182        9.0638249498       -5.0476060874
  O         2.0944557937        7.4532430045       -4.0306836525
  O         2.6627200652        9.4111443167       -3.1552092599
  C         1.7411292662        5.3672396101       -8.1968440537
  H         1.4358383610        6.4416008070       -8.3632925476
  O         2.2781383686        5.0765528518       -7.0407947281
  O         1.5312846863        4.4833217131       -9.0175285123
  C         9.4768424644        2.6096229266        3.9000106253
  H         9.6131090334        3.4671477718        4.5843902861
  O         8.5280085217        2.7173235908        3.0491968752
  O        10.1885099400        1.5401354728        4.0330721953
  C         6.6326453651        7.0382745508        3.3282159613
  H         7.5082674956        7.1289998248        4.0070788575
  O         6.4944209305        6.1604081356        2.4465763263
  O         5.7954571306        7.9029770453        3.5812665100
  C         4.7447758168        5.8524695333        6.9353689187
  H         5.7085862008        5.7040540943        7.4370666698
  O         4.3285381213        4.9885303377        6.0814806732
  O         4.1456934699        6.9224055809        7.1371488385
  C         7.5603306701        1.7452824243        7.1878494597
  H         8.1158840311        2.6116602203        7.6593692779
  O         6.7458301084        2.0301846711        6.2244339700
  O         7.8434811922        0.5821331536        7.5894591826
     227
 i =        2, time =        2.000, E =       -17.2876827952
 Cd        -8.6170009505        0.4783483253        3.4767977633
 Cd        -5.8708479843       -0.2575701355        7.1136330370
 Cd        -8.4089373042       -2.1552446652        0.3836199827
 Cd        -6.8896928888       -3.2938902397        3.9621410386