     227
 i =        0, time =        0.000, E =       -16.3381761142
 Cd        -8.6216924880        0.4810107428        3.4775887729
 Cd        -5.8723589632       -0.2566559957        7.1151373767
 Cd        -8.4076147924       -2.1531404527        0.3867588804
 Cd        -6.8957642261       -3.2896665849        3.9600318291
 Cd        -3.6930098048       -3.6992689615        7.3819491709
 Cd        -6.4429261463       -6.2347087238        0.4622469067
 Cd        -4.3123952394       -6.8285875372        3.9039095072
 Cd        -6.1141073353        3.8626235599        2.9066844924
 Cd        -3.6048790416        2.8797284733        6.5917986711
 Cd        -6.7531255596        1.1841266196       -0.3182182747
 Cd        -4.0437606329        0.0729837467        3.0511954168
 Cd        -1.7753257667       -0.3121054857        6.8316599018
 Cd        -6.3661028473       -1.4630135273       -3.4383357626
 Cd        -4.3602814436       -3.1214810613       -0.1759283953
 Cd        -2.2424276819       -3.6242998489        3.6335413818
 Cd         0.1757294635       -3.9625201566        7.0364714760
 Cd        -4.2692200317       -5.9860442556       -3.0005266361
 Cd        -2.2482225396       -6.7972628816        0.6786391664
 Cd         0.0669003827       -7.3030327295        3.8545421700
 Cd        -4.0792754193        7.4105475565        2.4175118797
 Cd        -1.6116442377        6.4880648240        6.2478272306
 Cd        -4.3308002626        4.8127262164       -0.6762739309
 Cd        -1.8326132452        3.6694977750        3.1598212265
 Cd         0.4939817277        3.1637060931        6.7202662426
 Cd        -4.5980154021        1.9988297698       -4.0880170010
 Cd        -2.1651194586        1.0165564496       -0.4536921834
 Cd         0.1376109507       -0.0659106884        3.1336818174
 Cd         2.6419074521       -0.6636939286        6.8958319365
 Cd        -4.1515129292       -0.5348426091       -6.9620217917
 Cd        -2.2012490343       -1.8491984656       -3.4894107829
 Cd         0.0359311218       -2.8494155653       -0.0264680683
 Cd         2.4407298775       -3.8224684908        3.5289587884
 Cd         4.5907434619       -4.2169180472        6.5928471603
 Cd        -2.6321953796       -4.5685798778       -6.0773989300
 Cd        -0.3638438279       -6.1221236347       -3.0620735359
 Cd         1.9882729153       -6.8506852632       -0.0376753302
 Cd         4.3604701588       -7.5063202656        3.0981086138
 Cd        -2.4313710890        8.2839908015       -1.2010761441
 Cd         0.1210964618        6.7915494583        2.0748938605
 Cd         2.2602783261        6.3879934074        5.9824457591
 Cd        -2.2743307721        5.5403016700       -4.1096429978
 Cd         0.1552258413        4.6164378819       -0.9814446932
 Cd         2.6173372932        3.7540356816        2.4616712460
 Cd         4.3934694910        2.5024270436        5.6448470259
 Cd        -2.3839877703        3.0961459608       -7.5397423510
 Cd        -0.1308699873        1.7716472388       -4.3458913396
 Cd         2.1522040622        0.8595996928       -0.9600505658
 Cd         4.3027041934       -0.4425155449        2.5248589789
 Cd         6.4943132815       -0.6514444341        6.0110723312
 Cd         0.4032906214       -0.5920449882       -7.0625722312
 Cd         2.1504065746       -1.8410095193       -3.9631978812
 Cd         4.1282053355       -2.9764966895       -0.5499119195
 Cd         6.9189885741       -3.8001688729        2.8840486736
 Cd         1.0693858855       -4.7693596381       -6.7909688629
 Cd         3.6529341800       -5.7620820022       -3.6150795142
 Cd         5.7341856059       -6.5625995016       -0.3323817960
 Cd         2.4532379782        8.1225833618       -1.1556872380
 Cd         4.4025673150        7.2904811152        1.7928276254
 Cd         2.3800547108        5.2453457502       -4.8107637235
 Cd         4.8184663347        4.7191125514       -1.4277792117
 Cd         6.7589411702        3.8390778732        2.0295448973
 Cd         2.6210634084        2.7844913241       -7.7035228004
 Cd         4.8495943395        1.7843685348       -4.5225056138
 Cd         6.7261500983        1.0662237140       -0.9642295531
 Cd         8.8881450478        0.4141445330        2.4369093904
 Cd         4.3615782352       -0.9213178924       -7.7328888960
 Cd         6.7438649008       -1.9767569930       -4.2031112584
 Cd         8.5272445020       -2.6218905711       -0.2551455218
 Se        -9.0557725106        0.2424574140        0.9180313808
 Se        -6.3745872764       -0.6570220647        4.4225742627
 Se        -3.9358548519       -1.3506397678        8.2925868769
 Se        -6.5830028390       -3.7408669090        1.3890860046
 Se        -4.5802302415       -4.2716541219        4.8585926421
 Se        -4.6110671623       -7.7792240778        1.5343213278
 Se        -6.6407812351        3.9866809498        0.4586064126
 Se        -4.0705866514        2.6241591830        3.9150270775
 Se        -1.6315747320        2.0143859544        7.9219454430
 Se        -6.7106235468        0.9827493806       -3.1628202938
 Se        -4.4077684895       -0.2106461950        0.3970531668
 Se        -2.0534879979       -1.1190641497        4.2604482105
 Se         0.4069246601       -1.5676855049        8.0617057342
 Se        -4.4126107232       -3.1307459794       -2.8028288282
 Se        -2.2371864822       -4.0884616040        0.9473336128
 Se         0.1541797359       -4.8148952714        4.4843326207
 Se        -2.4147106009       -7.4199706225       -2.0529393442
 Se        -0.0662571417       -7.8800811154        1.3078284855
 Se        -4.5519687636        7.5920037884       -0.0122560791
 Se        -1.8482840651        6.3647212661        3.5390459072
 Se         0.4006735392        5.8241498358        7.5878867146
 Se        -4.4655945585        4.5529209660       -3.3484418515
 Se        -2.0798083538        3.7153034916        0.3451575142
 Se         0.4973892782        2.6967113851        3.7286137790
 Se         2.7724753484        1.9958260876        7.6298945277
 Se        -4.6126224962        2.0736182894       -6.9031574659
 Se        -2.2770211290        0.8531533747       -3.1284312065
 Se         0.0138865169       -0.1636477002        0.3858468104
 Se         2.3115473387       -1.3198431962        4.0017354986
 Se         4.8624545925       -1.8855864388        7.7371297607
 Se        -2.0700877949       -1.9675257511       -6.4603372509
 Se        -0.0447057629       -3.1582708631       -2.8090856920
 Se         2.2343306950       -4.2299664240        0.7817840723
 Se         4.8342987615       -4.9516929708        4.0974643468
 Se        -0.7556003326       -6.2829108386       -5.8406699955
 Se         1.9243057511       -7.4784768035       -2.6074198353
 Se         4.2543989663       -8.3809591814        0.7363809319
 Se         0.0386925703        7.3677075300       -0.4939635450
 Se         2.3791568525        6.5289221229        3.1400383851
 Se         0.0465974103        4.4270318221       -3.5936563407
 Se         2.5167269427        3.6273521599       -0.0581806204
 Se         4.7705604635        2.4670139639        3.1233546104
 Se         0.0435933033        1.9323944164       -6.9695738842
 Se         2.2733127965        0.7623703678       -3.6584263160
 Se         4.3816175435       -0.2841549253       -0.0177063702
 Se         6.9670500347       -1.1290204494        3.5565582379
 Se         2.2410869402       -2.2702007814       -6.6798205275
 Se         4.3723294721       -3.1971869108       -3.2130677403
 Se         6.4331938555       -4.1098532443        0.4136420186
 Se         4.8503033307        7.5509093293       -0.7463548497
 Se         4.8776288797        4.5477652435       -4.0091414448
 Se         7.0830986217        3.5950723552       -0.6434567968
 Se         4.7810064642        1.5273410534       -7.5566303287
 Se         6.9188050062        0.6130038217       -3.7081238627
 Se         9.1066871843       -0.0609359671       -0.0919647969
  C         6.9955771113       -6.9586634775       -2.8583426301
  H         7.7780160969       -7.1271873265       -3.6573399650
  O         5.8389952916       -6.4652991204       -3.1445809228
  O         7.2920676004       -7.2683568805       -1.6893132711
  C         3.3939431960       -6.2668607509       -6.9513074648
  H         4.3245440932       -6.8689211647       -7.0591687882
  O         3.0202466073       -5.7860511295       -5.7843136273
  O         2.6220129789       -6.1746538788       -7.9242101403
  C         6.3116555909       -2.9071154185       -7.4921130606
  H         7.0978863851       -3.7212906458       -7.4285512081
  O         6.0096715894       -2.3219711192       -6.3505932827
  O         5.9403243477       -2.4750431756       -8.6116316973
  C         8.9837561036       -3.3697375837       -3.4349055328
  H         9.9249943929       -3.8864043165       -3.1840078659
  O         8.5659407989       -3.4209184445       -4.6048832464
  O         8.2714489672       -2.6971151254       -2.5207012617
  C         9.7902109758       -4.6282247391        2.1768529346
  H        10.6284324694       -5.3337138149        2.3552924638
  O         9.7484501532       -4.1824896055        0.9942458601
  O         9.0219926648       -4.5705851174        3.1873629795
  C        -2.8252708508       -8.8894178348        5.3653894160
  H        -2.3915771747       -9.8892286280        5.4446685031
  O        -1.9808601030       -7.9304545651        5.0436955975
  O        -4.0908415257       -8.7280019527        5.4030844137
  C         3.0047406823       -8.6887063298        5.2919739424
  H         2.6853413808       -9.0312323512        6.2714246943
  O         1.9985977812       -8.3553887881        4.5599054594
  O         4.2197147413       -8.6069092298        4.9235206312
  C         2.8732291572       -5.7090624943        8.2322507888
  H         2.4095730423       -6.3582442170        8.9295273658
  O         2.2236878889       -4.8031284854        7.6183804854
  O         4.1525405945       -5.8988692439        8.1468427445
  C        -2.5324052264       -5.9090323801        8.5168983878
  H        -2.0058427467       -6.7599986745        9.0204193621
  O        -1.9189018681       -5.2527647032        7.5983339134
  O        -3.6521974131       -5.4981014961        8.8936623702
  C        -6.8661340661        2.3082426882        7.3884767521
  H        -7.2433530482        3.2983326111        7.3747512577
  O        -5.6189307919        2.1553364867        7.5292857639
  O        -7.6694328727        1.3672322100        7.2032576312
  C        -4.1128935570        6.2776012356        7.2258109093
  H        -5.2184092536        6.2949225170        7.4003980339
  O        -3.5215502414        5.2331222329        6.7794929280
  O        -3.5956064510        7.4679880815        7.3184340370
  C        -6.2584500423        7.1467273309        4.0778865765
  H        -7.2018864753        7.1620259062        4.6862261037
  O        -5.8042352338        6.0508881806        3.6277903665
  O        -5.6141473350        8.2227071687        3.8530055117
  C        -9.2670155991        2.9624473135        4.4549609073
  H        -9.7760873251        3.8307467380        4.7753730710
  O        -8.0580447847        3.0137717908        4.1153681461
  O       -10.0869615960        1.9755230626        4.3964141791
  C        -9.5997958208       -3.5202239981        4.2555074891
  H       -10.6284324694       -3.6062117458        4.7363993397
  O        -9.3836198173       -2.7271085544        3.2939504316
  O        -8.6749593009       -4.3055307223        4.7674147240
  C        -5.4063829718       -6.0836320759       -6.1576393485
  H        -6.0390997038       -6.5934387315       -6.8768176703
  O        -5.3157147411       -6.5042627408       -4.9638375967
  O        -4.7997118332       -5.0931497246       -6.6842330004
  C        -7.4812021438       -7.2683192216       -1.8337008205
  H        -7.8430239833       -7.7214409635       -2.7403108931
  O        -6.3847231004       -6.5596142310       -1.8855223803
  O        -8.0870004405       -7.4369608581       -0.7449951352
  C        -9.2637717352       -3.4248031045       -2.1287629167
  H        -9.5435102925       -4.0726156799       -2.9624854104
  O        -8.1685743898       -2.7562864935       -2.2769679175
  O        -9.8293124780       -3.4993302663       -1.0042472880
  C        -6.7198117275       -1.5155721631       -7.0057360974
  H        -7.7266400310       -1.9701098143       -7.1795729881
  O        -6.3208037730       -1.2812141421       -5.7891801227
  O        -6.0546670581       -1.2647410752       -8.0219575549
  C        -1.9610306020        5.6962737072       -7.4797868569
  H        -1.8068881661        6.7616764611       -7.4798700689
  O        -2.4613788677        5.1953402046       -6.4147373301
  O        -1.7592038190        5.0404242691       -8.5376948407
  C        -1.7153677193        9.0065729983       -3.7807068554
  H        -1.3518565997        9.2891789052       -4.8285272378
  O        -1.7735635219        7.7204009534       -3.5311974415
  O        -1.9589811591        9.8892286280       -2.9296575010
  C         2.5176986766        8.6527359013       -4.1276241396
  H         2.7356319561        9.0838176512       -5.0545617483
  O         2.0941304229        7.4607563111       -4.0382054964
  O         2.6632020791        9.4136986823       -3.1567247192
  C         1.7405814703        5.3615037054       -8.2026998584
  H         1.4592813282        6.4433815072       -8.3446733349
  O         2.2712544771        5.0744229803       -7.0359036782
  O         1.5374971892        4.4786315137       -9.0204193621
  C         9.4791869119        2.6134878200        3.9079418032
  H         9.6264681644        3.4611325178        4.5867541287
  O         8.5294682966        2.7206869475        3.0468687327
  O        10.1884170796        1.5361363159        4.0354546634
  C         6.6320899766        7.0427804887        3.3240585285
  H         7.5183451153        7.1103565644        4.0025867163
  O         6.4921259472        6.1579139584        2.4473334656
  O         5.8014508194        7.8970951585        3.5804466065
  C         4.7468288793        5.8510846562        6.9391041765
  H         5.6837062732        5.7110173508        7.4566454645
  O         4.3315486404        4.9881730889        6.0840680113
  O         4.1390624477        6.9214380767        7.1338855679
  C         7.5642974957        1.7429307679        7.1823006621
  H         8.1116275708        2.6102062210        7.6466333920
  O         6.7423080014        2.0330978891        6.2208765696
  O         7.8434776238        0.5800715711        7.5931108165
     227
 i =        1, time =        1.000, E =       -16.3476336603
 Cd        -8.6193473546        0.4796536338        3.4771603795
 Cd        -5.8715169833       -0.2571923685        7.1144083031
 Cd        -8.4082266377       -2.1541264760        0.3852394065
 Cd        -6.8927411434       -3.2918174694        3.9610936263
 Cd        -3.6901778500       -3.7003832401        7.3823981156
 Cd        -6.4419743009       -6.2357662045        0.4642673384
 Cd        -4.3123545003       -6.8296345977        3.9052065799
 Cd        -6.1163815808        3.8609336752        2.9055475346
 Cd        -3.6066145321        2.8812269904        6.5904249610
 Cd        -6.7534348994        1.1872372553       -0.3192246390
 Cd        -4.0444191281        0.0755188850        3.0501907838
 Cd        -1.7741849525       -0.3125625521        6.8335979286
 Cd        -6.3660978368       -1.4624072743       -3.4401769183
 Cd        -4.3613417203       -3.1217915648       -0.1745558963
 Cd        -2.2426153134       -3.6215560970        3.6336142935
 Cd         0.1787200504       -3.9615868641        7.0369426025
 Cd        -4.2693686245       -5.9882528189       -2.9988663748
 Cd        -2.2486884684       -6.7966417559        0.6791694041
 Cd         0.0677950050       -7.3029864927        3.8542268875
 Cd        -4.0803168611        7.4119361585        2.4182507118
 Cd        -1.6107780943        6.4879164177        6.2509842300
 Cd        -4.3325421922        4.8128058130       -0.6769579992
 Cd        -1.8304007385        3.6695912357        3.1589492236
 Cd         0.4898052422        3.1633351779        6.7205528109
 Cd        -4.5996572733        2.0001139747       -4.0890003035
 Cd        -2.1628944138        1.0181189561       -0.4517589890
 Cd         0.1384334623       -0.0681773546        3.1344211721
 Cd         2.6424424403       -0.6635638071        6.8959254287
 Cd        -4.1540900939       -0.5351549335       -6.9611324804
 Cd        -2.2031805137       -1.8491084493       -3.4900219965
 Cd         0.0358084730       -2.8474930774       -0.0250987120
 Cd         2.4397082152       -3.8215430588        3.5304718091
 Cd         4.5938346965       -4.2151990067        6.5946873859
 Cd        -2.6316889267       -4.5699914470       -6.0785526464
 Cd        -0.3609707538       -6.1210861836       -3.0631341274
 Cd         1.9863987724       -6.8523605402       -0.0374667308
 Cd         4.3578633908       -7.5050765676        3.0974131792
 Cd        -2.4320662255        8.2867238229       -1.2003605678
 Cd         0.1211453346        6.7911412393        2.0748084663
 Cd         2.2581062394        6.3879326242        5.9826766557
 Cd        -2.2740486090        5.5405417884       -4.1121262237
 Cd         0.1544585560        4.6148689306       -0.9823552323
 Cd         2.6165307130        3.7533423813        2.4610123000
 Cd         4.3939277453        2.5015351783        5.6446925456
 Cd        -2.3864915641        3.0937344391       -7.5398880555
 Cd        -0.1312647658        1.7709292937       -4.3474256120
 Cd         2.1531839181        0.8600192498       -0.9632072845
 Cd         4.3034684501       -0.4402564832        2.5247961764
 Cd         6.4920356849       -0.6517804837        6.0104854213
 Cd         0.4042734250       -0.5927788685       -7.0621277928
 Cd         2.1513253042       -1.8410948707       -3.9633381030
 Cd         4.1299836935       -2.9780275798       -0.5482350780
 Cd         6.9198260052       -3.7969846639        2.8855147289
 Cd         1.0695655124       -4.7692266667       -6.7906636870
 Cd         3.6506345166       -5.7625254606       -3.6177299779
 Cd         5.7329836269       -6.5640404105       -0.3327892263
 Cd         2.4551368695        8.1222951623       -1.1566280305
 Cd         4.4053561015        7.2897887369        1.7948365606
 Cd         2.3804082845        5.2452224857       -4.8087347707
 Cd         4.8190005904        4.7184547221       -1.4284266250
 Cd         6.7582387662        3.8401483078        2.0311457486
 Cd         2.6218138711        2.7829117619       -7.7033793718
 Cd         4.8493742842        1.7846638858       -4.5231217531
 Cd         6.7277361776        1.0650324298       -0.9631173522
 Cd         8.8867441049        0.4155853286        2.4347890339
 Cd         4.3618213934       -0.9226020745       -7.7309148871
 Cd         6.7427876938       -1.9756200207       -4.2012747273
 Cd         8.5291302034       -2.6208061252       -0.2528042954
 Se        -9.0547263338        0.2428392568        0.9183349764
 Se        -6.3727465880       -0.6565039897        4.4182967702
 Se        -3.9345519518       -1.3489640856        8.2964598605
 Se        -6.5831107673       -3.7425276566        1.3880822899
 Se        -4.5790627557       -4.2748278679        4.8597117778
 Se        -4.6122235466       -7.7765172740        1.5328580859
 Se        -6.6422131878        3.9855480964        0.4577394221
 Se        -4.0719346124        2.6208465994        3.9142698161
 Se        -1.6333395760        2.0117221122        7.9250408860
 Se        -6.7116041792        0.9828587429       -3.1654629019
 Se        -4.4070478563       -0.2111807347        0.3949069267
 Se        -2.0531376710       -1.1153552544        4.2593641324
 Se         0.4060028561       -1.5661694303        8.0650210452
 Se        -4.4160466746       -3.1299589880       -2.8046440347
 Se        -2.2374559814       -4.0915773212        0.9472024595
 Se         0.1530684435       -4.8127514830        4.4857819182
 Se        -2.4165717772       -7.4205411761       -2.0539615828
 Se        -0.0669791864       -7.8790666274        1.3095476362
 Se        -4.5520517630        7.5948267539       -0.0125622307
 Se        -1.8467076327        6.3632901339        3.5400329767
 Se         0.4036942389        5.8261719481        7.5857850760
 Se        -4.4659715452        4.5539442289       -3.3489424285
 Se        -2.0809731897        3.7152507662        0.3431698858
 Se         0.4982049957        2.6970198871        3.7286537030
 Se         2.7717861259        1.9958562928        7.6261423185
 Se        -4.6131093827        2.0747471212       -6.9048989447
 Se        -2.2788672488        0.8535105041       -3.1260963003
 Se         0.0145449572       -0.1632219703        0.3853921725
 Se         2.3129734419       -1.3189433094        3.9989732507
 Se         4.8631388164       -1.8843108337        7.7353401852
 Se        -2.0702289941       -1.9664069009       -6.4603638064
 Se        -0.0447441533       -3.1598992440       -2.8087867563
 Se         2.2323288831       -4.2314345317        0.7809282714
 Se         4.8362291298       -4.9530605159        4.0967195230
 Se        -0.7551503311       -6.2847383148       -5.8413912944
 Se         1.9250049533       -7.4789769908       -2.6075977086
 Se         4.2593754734       -8.3791095189        0.7364373027
 Se         0.0356642191        7.3685943233       -0.4912899432
 Se         2.3808835342        6.5252181419        3.1424216752
 Se         0.0437081371        4.4288064684       -3.5939768101
 Se         2.5163675492        3.6274460129       -0.0567942258
 Se         4.7726635360        2.4662003553        3.1253391161
 Se         0.0455219876        1.9298993694       -6.9704605068
 Se         2.2757936986        0.7648118090       -3.6570490884
 Se         4.3766218955       -0.2853736022       -0.0177666335
 Se         6.9676943845       -1.1294396797        3.5582649400
 Se         2.2369396729       -2.2681241454       -6.6837549478
 Se         4.3736887667       -3.1974792152       -3.2156295513
 Se         6.4331252691       -4.1116740314        0.4130164361
 Se         4.8514588305        7.5524087375       -0.7458746247
 Se         4.8774416537        4.5489623182       -4.0121870487
 Se         7.0855340075        3.5934226621       -0.6428786589
 Se         4.7816116149        1.5263873173       -7.5555431272
 Se         6.9184835014        0.6112265430       -3.7073589893
 Se         9.1068272578       -0.0627179395       -0.0922827491
  C         6.9966720638       -6.9498056694       -2.8612711440
  H         7.7649322095       -7.1224747738       -3.6684216540
  O         5.8438855997       -6.4671993889       -3.1400673107
  O         7.2883381741       -7.2740337158       -1.6934517989
  C         3.3950810940       -6.2672873920       -6.9491624077
  H         4.3444066225       -6.8936096686       -7.0753272229
  O         3.0188061192       -5.7908226154       -5.7818590347
  O         2.6176319520       -6.1688186904       -7.9239208318
  C         6.3106272803       -2.9078621840       -7.4910169787
  H         7.1299137504       -3.7048862282       -7.4466889051
  O         6.0085474940       -2.3181295125       -6.3473440498
  O         5.9392642733       -2.4741570323       -8.6124085041
  C         8.9774207190       -3.3708876715       -3.4296352897
  H         9.9250180562       -3.8774829974       -3.1826003730
  O         8.5681583269       -3.4147906352       -4.6045786765
  O         8.2716595637       -2.6966793941       -2.5199697949
  C         9.7980485242       -4.6251906519        2.1809877293
  H        10.6408655401       -5.3318691344        2.3887999993
  O         9.7470418548       -4.1804007360        0.9925494878
  O         9.0284015520       -4.5680479470        3.1870169996
  C        -2.8217207143       -8.8884109111        5.3598599111
  H        -2.4154187803       -9.9024293192        5.4343946394
  O        -1.9847089302       -7.9305982441        5.0422722404
  O        -4.0904580308       -8.7273324528        5.4043501123
  C         2.9969146591       -8.6915938178        5.2874310787
  H         2.6967725338       -9.0398269484        6.2934215078
  O         1.9992526893       -8.3577751666        4.5593716670
  O         4.2233792464       -8.6004092999        4.9152161857
  C         2.8792898506       -5.7053288603        8.2324056476
  H         2.3955873073       -6.3773024893        8.9303283437
  O         2.2188917284       -4.8087743449        7.6162586975
  O         4.1498486411       -5.9033711508        8.1534763054
  C        -2.5347065506       -5.9173511311        8.5219737361
  H        -2.0052498086       -6.7390725628        9.0096019785
  O        -1.9214428808       -5.2582150382        7.5983096170
  O        -3.6522394999       -5.5083003296        8.8926547471
  C        -6.8630623599        2.3027104058        7.3891692205
  H        -7.2086193538        3.3071349018        7.3885257928
  O        -5.6212098426        2.1590674362        7.5336182806
  O        -7.6694532914        1.3701955957        7.1999466465
  C        -4.1170053762        6.2827874182        7.2281656381
  H        -5.2418933127        6.2896177269        7.3832000201
  O        -3.5265761836        5.2289954416        6.7737799674
  O        -3.5909942973        7.4672789948        7.3179872269
  C        -6.2567303250        7.1462205161        4.0781022263
  H        -7.2111390447        7.1649409639        4.6689854642
  O        -5.8089976929        6.0477848641        3.6278151618
  O        -5.6126086048        8.2206275986        3.8486017801
  C        -9.2741920065        2.9617409789        4.4604858526
  H        -9.7855372140        3.8838940690        4.7760086716
  O        -8.0587553674        3.0118883462        4.1192333991
  O       -10.0809729800        1.9791492420        4.3921368485
  C        -9.6032604487       -3.5282093222        4.2551555586
  H       -10.5971720209       -3.6001750875        4.7566807035
  O        -9.3832132224       -2.7227763887        3.2942850989
  O        -8.6784112492       -4.3015668155        4.7628975231
  C        -5.4081386451       -6.0792153837       -6.1561747425
  H        -6.0546960796       -6.5859836395       -6.8890942905
  O        -5.3109376455       -6.5040173671       -4.9650662305
  O        -4.7982639462       -5.0927002589       -6.6852464284
  C        -7.4874817823       -7.2705435312       -1.8347991763
  H        -7.8388434959       -7.7173330376       -2.7530342297
  O        -6.3886832554       -6.5549280302       -1.8842149355
  O        -8.0715895388       -7.4408281258       -0.7457591579
  C        -9.2562511472       -3.4270083278       -2.1219671804
  H        -9.5270787848       -4.0663584857       -2.9594189931
  O        -8.1697729152       -2.7553652705       -2.2726853821
  O        -9.8241371543       -3.4939072310       -1.0091506048
  C        -6.7206991147       -1.5101619866       -7.0045812599
  H        -7.7450574417       -1.9674181007       -7.1698505571
  O        -6.3197462222       -1.2781457753       -5.7989471609
  O        -6.0631672364       -1.2634399122       -8.0154323150
  C        -1.9628889599        5.6954858678       -7.4852996651
  H        -1.7770888886        6.7764005651       -7.4923242406
  O        -2.4611370304        5.1866428913       -6.4086573630
  O        -1.7564501908        5.0402612081       -8.5282547293
  C        -1.7168749568        9.0074889809       -3.7839159559
  H        -1.3493405476        9.2660238074       -4.8465614694
  O        -1.7701226373        7.7193715841       -3.5245949859
  O        -1.9637729204        9.8894850290       -2.9407481771
  C         2.5062243902        8.6538702239       -4.1272909556
  H         2.7131102182        9.0638249498       -5.0476060874
  O         2.0944714582        7.4531476540       -4.0307310630
  O         2.6627204033        9.4111051681       -3.1551458885
  C         1.7411374523        5.3672405128       -8.1968504720
  H         1.4358383610        6.4416008070       -8.3632925476
  O         2.2781674646        5.0765144762       -7.0405512123
  O         1.5313124864        4.4832776404       -9.0175013940
  C         9.4768542263        2.6096242934        3.9000074011
  H         9.6131090334        3.4671477718        4.5843902861
  O         8.5279200781        2.7173253003        3.0491171946
  O        10.1884549356        1.5400830918        4.0329985715
  C         6.6326497245        7.0382834682        3.3282121726
  H         7.5082674956        7.1289998248        4.0070788575
  O         6.4944064831        6.1603387822        2.4465429846
  O         5.7953988357        7.9029577116        3.5811854330
  C         4.7447732978        5.8524734903        6.9353776324
  H         5.7085862008        5.7040540943        7.4370666698
  O         4.3285216147        4.9885270466        6.0814868436
  O         4.1455234208        6.9223605688        7.1370537022
  C         7.5603327581        1.7452819921        7.1878594041
  H         8.1158840311        2.6116602203        7.6593692779
  O         6.7457909807        2.0302026215        6.2244301870
  O         7.8434493559        0.5821009596        7.5894296153
     227
 i =        2, time =        2.000, E =       -16.3634322550
 Cd        -8.6170165688        0.4783629180        3.4767291070
 Cd        -5.8706895446       -0.2576445597        7.1136970295
 Cd        -8.4089100746       -2.1551425663        0.3836923363
 Cd        -6.8897376504       -3.2939697230        3.9621351421