     227
 i =        0, time =        0.000, E =       -10.1715999673
 Cd        -8.6216924880        0.4810107428        3.4775887729
 Cd        -5.8723589632       -0.2566559957        7.1151373767
 Cd        -8.4076147924       -2.1531404527        0.3867588804
 Cd        -6.8957642261       -3.2896665849        3.9600318291
 Cd        -3.6930098048       -3.6992689615        7.3819491709
 Cd        -6.4429261463       -6.2347087238        0.4622469067
 Cd        -4.3123952394       -6.8285875372        3.9039095072
 Cd        -6.1141073353        3.8626235599        2.9066844924
 Cd        -3.6048790416        2.8797284733        6.5917986711
 Cd        -6.7531255596        1.1841266196       -0.3182182747
 Cd        -4.0437606329        0.0729837467        3.0511954168
 Cd        -1.7753257667       -0.3121054857        6.8316599018
 Cd        -6.3661028473       -1.4630135273       -3.4383357626
 Cd        -4.3602814436       -3.1214810613       -0.1759283953
 Cd        -2.2424276819       -3.6242998489        3.6335413818
 Cd         0.1757294635       -3.9625201566        7.0364714760
 Cd        -4.2692200317       -5.9860442556       -3.0005266361
 Cd        -2.2482225396       -6.7972628816        0.6786391664
 Cd         0.0669003827       -7.3030327295        3.8545421700
 Cd        -4.0792754193        7.4105475565        2.4175118797
 Cd        -1.6116442377        6.4880648240        6.2478272306
 Cd        -4.3308002626        4.8127262164       -0.6762739309
 Cd        -1.8326132452        3.6694977750        3.1598212265
 Cd         0.4939817277        3.1637060931        6.7202662426
 Cd        -4.5980154021        1.9988297698       -4.0880170010
 Cd        -2.1651194586        1.0165564496       -0.4536921834
 Cd         0.1376109507       -0.0659106884        3.1336818174
 Cd         2.6419074521       -0.6636939286        6.8958319365
 Cd        -4.1515129292       -0.5348426091       -6.9620217917
 Cd        -2.2012490343       -1.8491984656       -3.4894107829
 Cd         0.0359311218       -2.8494155653       -0.0264680683
 Cd         2.4407298775       -3.8224684908        3.5289587884
 Cd         4.5907434619       -4.2169180472        6.5928471603
 Cd        -2.6321953796       -4.5685798778       -6.0773989300
 Cd        -0.3638438279       -6.1221236347       -3.0620735359
 Cd         1.9882729153       -6.8506852632       -0.0376753302
 Cd         4.3604701588       -7.5063202656        3.0981086138
 Cd        -2.4313710890        8.2839908015       -1.2010761441
 Cd         0.1210964618        6.7915494583        2.0748938605
 Cd         2.2602783261        6.3879934074        5.9824457591
 Cd        -2.2743307721        5.5403016700       -4.1096429978
 Cd         0.1552258413        4.6164378819       -0.9814446932
 Cd         2.6173372932        3.7540356816        2.4616712460
 Cd         4.3934694910        2.5024270436        5.6448470259
 Cd        -2.3839877703        3.0961459608       -7.5397423510
 Cd        -0.1308699873        1.7716472388       -4.3458913396
 Cd         2.1522040622        0.8595996928       -0.9600505658
 Cd         4.3027041934       -0.4425155449        2.5248589789
 Cd         6.4943132815       -0.6514444341        6.0110723312
 Cd         0.4032906214       -0.5920449882       -7.0625722312
 Cd         2.1504065746       -1.8410095193       -3.9631978812
 Cd         4.1282053355       -2.9764966895       -0.5499119195
 Cd         6.9189885741       -3.8001688729        2.8840486736
 Cd         1.0693858855       -4.7693596381       -6.7909688629
 Cd         3.6529341800       -5.7620820022       -3.6150795142
 Cd         5.7341856059       -6.5625995016       -0.3323817960
 Cd         2.4532379782        8.1225833618       -1.1556872380
 Cd         4.4025673150        7.2904811152        1.7928276254
 Cd         2.3800547108        5.2453457502       -4.8107637235
 Cd         4.8184663347        4.7191125514       -1.4277792117
 Cd         6.7589411702        3.8390778732        2.0295448973
 Cd         2.6210634084        2.7844913241       -7.7035228004
 Cd         4.8495943395        1.7843685348       -4.5225056138
 Cd         6.7261500983        1.0662237140       -0.9642295531
 Cd         8.8881450478        0.4141445330        2.4369093904
 Cd         4.3615782352       -0.9213178924       -7.7328888960
 Cd         6.7438649008       -1.9767569930       -4.2031112584
 Cd         8.5272445020       -2.6218905711       -0.2551455218
 Se        -9.0557725106        0.2424574140        0.9180313808
 Se        -6.3745872764       -0.6570220647        4.4225742627
 Se        -3.9358548519       -1.3506397678        8.2925868769
 Se        -6.5830028390       -3.7408669090        1.3890860046
 Se        -4.5802302415       -4.2716541219        4.8585926421
 Se        -4.6110671623       -7.7792240778        1.5343213278
 Se        -6.6407812351        3.9866809498        0.4586064126
 Se        -4.0705866514        2.6241591830        3.9150270775
 Se        -1.6315747320        2.0143859544        7.9219454430
 Se        -6.7106235468        0.9827493806       -3.1628202938
 Se        -4.4077684895       -0.2106461950        0.3970531668
 Se        -2.0534879979       -1.1190641497        4.2604482105
 Se         0.4069246601       -1.5676855049        8.0617057342
 Se        -4.4126107232       -3.1307459794       -2.8028288282
 Se        -2.2371864822       -4.0884616040        0.9473336128
 Se         0.1541797359       -4.8148952714        4.4843326207
 Se        -2.4147106009       -7.4199706225       -2.0529393442
 Se        -0.0662571417       -7.8800811154        1.3078284855
 Se        -4.5519687636        7.5920037884       -0.0122560791
 Se        -1.8482840651        6.3647212661        3.5390459072
 Se         0.4006735392        5.8241498358        7.5878867146
 Se        -4.4655945585        4.5529209660       -3.3484418515
 Se        -2.0798083538        3.7153034916        0.3451575142
 Se         0.4973892782        2.6967113851        3.7286137790
 Se         2.7724753484        1.9958260876        7.6298945277
 Se        -4.6126224962        2.0736182894       -6.9031574659
 Se        -2.2770211290        0.8531533747       -3.1284312065
 Se         0.0138865169       -0.1636477002        0.3858468104
 Se         2.3115473387       -1.3198431962        4.0017354986
 Se         4.8624545925       -1.8855864388        7.7371297607
 Se        -2.0700877949       -1.9675257511       -6.4603372509
 Se        -0.0447057629       -3.1582708631       -2.8090856920
 Se         2.2343306950       -4.2299664240        0.7817840723
 Se         4.8342987615       -4.9516929708        4.0974643468
 Se        -0.7556003326       -6.2829108386       -5.8406699955
 Se         1.9243057511       -7.4784768035       -2.6074198353
 Se         4.2543989663       -8.3809591814        0.7363809319
 Se         0.0386925703        7.3677075300       -0.4939635450
 Se         2.3791568525        6.5289221229        3.1400383851
 Se         0.0465974103        4.4270318221       -3.5936563407
 Se         2.5167269427        3.6273521599       -0.0581806204
 Se         4.7705604635        2.4670139639        3.1233546104
 Se         0.0435933033        1.9323944164       -6.9695738842
 Se         2.2733127965        0.7623703678       -3.6584263160
 Se         4.3816175435       -0.2841549253       -0.0177063702
 Se         6.9670500347       -1.1290204494        3.5565582379
 Se         2.2410869402       -2.2702007814       -6.6798205275
 Se         4.3723294721       -3.1971869108       -3.2130677403
 Se         6.4331938555       -4.1098532443        0.4136420186
 Se         4.8503033307        7.5509093293       -0.7463548497
 Se         4.8776288797        4.5477652435       -4.0091414448
 Se         7.0830986217        3.5950723552       -0.6434567968
 Se         4.7810064642        1.5273410534       -7.5566303287
 Se         6.9188050062        0.6130038217       -3.7081238627
 Se         9.1066871843       -0.0609359671       -0.0919647969
  C         6.9955771113       -6.9586634775       -2.8583426301
  H         7.7780160969       -7.1271873265       -3.6573399650
  O         5.8389952916       -6.4652991204       -3.1445809228
  O         7.2920676004       -7.2683568805       -1.6893132711
  C         3.3939431960       -6.2668607509       -6.9513074648
  H         4.3245440932       -6.8689211647       -7.0591687882
  O         3.0202466073       -5.7860511295       -5.7843136273
  O         2.6220129789       -6.1746538788       -7.9242101403
  C         6.3116555909       -2.9071154185       -7.4921130606
  H         7.0978863851       -3.7212906458       -7.4285512081
  O         6.0096715894       -2.3219711192       -6.3505932827
  O         5.9403243477       -2.4750431756       -8.6116316973
  C         8.9837561036       -3.3697375837       -3.4349055328
  H         9.9249943929       -3.8864043165       -3.1840078659
  O         8.5659407989       -3.4209184445       -4.6048832464
  O         8.2714489672       -2.6971151254       -2.5207012617
  C         9.7902109758       -4.6282247391        2.1768529346
  H        10.6284324694       -5.3337138149        2.3552924638
  O         9.7484501532       -4.1824896055        0.9942458601
  O         9.0219926648       -4.5705851174        3.1873629795
  C        -2.8252708508       -8.8894178348        5.3653894160
  H        -2.3915771747       -9.8892286280        5.4446685031
  O        -1.9808601030       -7.9304545651        5.0436955975
  O        -4.0908415257       -8.7280019527        5.4030844137
  C         3.0047406823       -8.6887063298        5.2919739424
  H         2.6853413808       -9.0312323512        6.2714246943
  O         1.9985977812       -8.3553887881        4.5599054594
  O         4.2197147413       -8.6069092298        4.9235206312
  C         2.8732291572       -5.7090624943        8.2322507888
  H         2.4095730423       -6.3582442170        8.9295273658
  O         2.2236878889       -4.8031284854        7.6183804854
  O         4.1525405945       -5.8988692439        8.1468427445
  C        -2.5324052264       -5.9090323801        8.5168983878
  H        -2.0058427467       -6.7599986745        9.0204193621
  O        -1.9189018681       -5.2527647032        7.5983339134
  O        -3.6521974131       -5.4981014961        8.8936623702
  C        -6.8661340661        2.3082426882        7.3884767521
  H        -7.2433530482        3.2983326111        7.3747512577
  O        -5.6189307919        2.1553364867        7.5292857639
  O        -7.6694328727        1.3672322100        7.2032576312
  C        -4.1128935570        6.2776012356        7.2258109093
  H        -5.2184092536        6.2949225170        7.4003980339
  O        -3.5215502414        5.2331222329        6.7794929280
  O        -3.5956064510        7.4679880815        7.3184340370
  C        -6.2584500423        7.1467273309        4.0778865765
  H        -7.2018864753        7.1620259062        4.6862261037
  O        -5.8042352338        6.0508881806        3.6277903665
  O        -5.6141473350        8.2227071687        3.8530055117
  C        -9.2670155991        2.9624473135        4.4549609073
  H        -9.7760873251        3.8307467380        4.7753730710
  O        -8.0580447847        3.0137717908        4.1153681461
  O       -10.0869615960        1.9755230626        4.3964141791
  C        -9.5997958208       -3.5202239981        4.2555074891
  H       -10.6284324694       -3.6062117458        4.7363993397
  O        -9.3836198173       -2.7271085544        3.2939504316
  O        -8.6749593009       -4.3055307223        4.7674147240
  C        -5.4063829718       -6.0836320759       -6.1576393485
  H        -6.0390997038       -6.5934387315       -6.8768176703
  O        -5.3157147411       -6.5042627408       -4.9638375967
  O        -4.7997118332       -5.0931497246       -6.6842330004
  C        -7.4812021438       -7.2683192216       -1.8337008205
  H        -7.8430239833       -7.7214409635       -2.7403108931
  O        -6.3847231004       -6.5596142310       -1.8855223803
  O        -8.0870004405       -7.4369608581       -0.7449951352
  C        -9.2637717352       -3.4248031045       -2.1287629167
  H        -9.5435102925       -4.0726156799       -2.9624854104
  O        -8.1685743898       -2.7562864935       -2.2769679175
  O        -9.8293124780       -3.4993302663       -1.0042472880
  C        -6.7198117275       -1.5155721631       -7.0057360974
  H        -7.7266400310       -1.9701098143       -7.1795729881
  O        -6.3208037730       -1.2812141421       -5.7891801227
  O        -6.0546670581       -1.2647410752       -8.0219575549
  C        -1.9610306020        5.6962737072       -7.4797868569
  H        -1.8068881661        6.7616764611       -7.4798700689
  O        -2.4613788677        5.1953402046       -6.4147373301
  O        -1.7592038190        5.0404242691       -8.5376948407
  C        -1.7153677193        9.0065729983       -3.7807068554
  H        -1.3518565997        9.2891789052       -4.8285272378
  O        -1.7735635219        7.7204009534       -3.5311974415
  O        -1.9589811591        9.8892286280       -2.9296575010
  C         2.5176986766        8.6527359013       -4.1276241396
  H         2.7356319561        9.0838176512       -5.0545617483
  O         2.0941304229        7.4607563111       -4.0382054964
  O         2.6632020791        9.4136986823       -3.1567247192
  C         1.7405814703        5.3615037054       -8.2026998584
  H         1.4592813282        6.4433815072       -8.3446733349
  O         2.2712544771        5.0744229803       -7.0359036782
  O         1.5374971892        4.4786315137       -9.0204193621
  C         9.4791869119        2.6134878200        3.9079418032
  H         9.6264681644        3.4611325178        4.5867541287
  O         8.5294682966        2.7206869475        3.0468687327
  O        10.1884170796        1.5361363159        4.0354546634
  C         6.6320899766        7.0427804887        3.3240585285
  H         7.5183451153        7.1103565644        4.0025867163
  O         6.4921259472        6.1579139584        2.4473334656
  O         5.8014508194        7.8970951585        3.5804466065
  C         4.7468288793        5.8510846562        6.9391041765
  H         5.6837062732        5.7110173508        7.4566454645
  O         4.3315486404        4.9881730889        6.0840680113
  O         4.1390624477        6.9214380767        7.1338855679
  C         7.5642974957        1.7429307679        7.1823006621
  H         8.1116275708        2.6102062210        7.6466333920
  O         6.7423080014        2.0330978891        6.2208765696
  O         7.8434776238        0.5800715711        7.5931108165
     227
 i =        1, time =        1.000, E =       -10.1806489313
 Cd        -8.6193432661        0.4796402267        3.4771651008
 Cd        -5.8715236629       -0.2572034568        7.1144004874
 Cd        -8.4082141142       -2.1541273441        0.3852397698
 Cd        -6.8927336021       -3.2918133029        3.9610964646
 Cd        -3.6901783465       -3.7003792653        7.3823780651
 Cd        -6.4419688095       -6.2357528875        0.4642794111
 Cd        -4.3123542106       -6.8296162056        3.9052080033
 Cd        -6.1163732162        3.8609276271        2.9055513795
 Cd        -3.6066097860        2.8812231522        6.5904037429
 Cd        -6.7534229459        1.1872308027       -0.3192201752
 Cd        -4.0444067372        0.0755174119        3.0501811906
 Cd        -1.7741894463       -0.3125675796        6.8335696864
 Cd        -6.3660854296       -1.4624226265       -3.4401696099
 Cd        -4.3613420337       -3.1217885801       -0.1745573356
 Cd        -2.2426100846       -3.6215626033        3.6336058605
 Cd         0.1787073482       -3.9615856469        7.0369310989
 Cd        -4.2693588453       -5.9882280646       -2.9988620572
 Cd        -2.2486982084       -6.7966208990        0.6791755606
 Cd         0.0677899246       -7.3029816591        3.8542259742
 Cd        -4.0802885766        7.4119361627        2.4182556482
 Cd        -1.6107700142        6.4879254483        6.2509624931
 Cd        -4.3325219421        4.8128037608       -0.6769476138
 Cd        -1.8303909476        3.6695894200        3.1589454700
 Cd         0.4898040754        3.1633452721        6.7205243311
 Cd        -4.5996278562        2.0001020134       -4.0890032364
 Cd        -2.1628846466        1.0181196988       -0.4517513672
 Cd         0.1384284579       -0.0681713781        3.1344085711
 Cd         2.6424454679       -0.6635627276        6.8958944257
 Cd        -4.1540676238       -0.5351522194       -6.9611285952
 Cd        -2.2031742023       -1.8491028119       -3.4900232441
 Cd         0.0358079221       -2.8474767020       -0.0250970877
 Cd         2.4397108141       -3.8215464501        3.5304666412
 Cd         4.5938408058       -4.2151919268        6.5946721894
 Cd        -2.6316838808       -4.5699770225       -6.0785419128
 Cd        -0.3609696240       -6.1210549509       -3.0631272677
 Cd         1.9864051778       -6.8523385874       -0.0374614342
 Cd         4.3578714004       -7.5050501662        3.0974005328
 Cd        -2.4320587753        8.2867250145       -1.2003454178
 Cd         0.1211452133        6.7911377074        2.0747938751
 Cd         2.2580882555        6.3879372235        5.9826447746
 Cd        -2.2740400557        5.5405402552       -4.1121176747
 Cd         0.1544601751        4.6148610023       -0.9823383391
 Cd         2.6165214783        3.7533521323        2.4610241645
 Cd         4.3939150075        2.5015235120        5.6446889856
 Cd        -2.3864784004        3.0937092516       -7.5398934736
 Cd        -0.1312635859        1.7709148501       -4.3474177416
 Cd         2.1531645107        0.8600191127       -0.9631998425
 Cd         4.3034613871       -0.4402616637        2.5248085068
 Cd         6.4920215734       -0.6517870672        6.0104823662
 Cd         0.4042647677       -0.5927782399       -7.0621297504
 Cd         2.1513078096       -1.8410914470       -3.9633293140
 Cd         4.1299678316       -2.9780210049       -0.5482301586
 Cd         6.9198179815       -3.7969789780        2.8855283390
 Cd         1.0695449426       -4.7691986622       -6.7906720387
 Cd         3.6506216084       -5.7625123952       -3.6177146110
 Cd         5.7329618434       -6.5640231132       -0.3327720866
 Cd         2.4551221545        8.1222960606       -1.1566039907
 Cd         4.4053385471        7.2897922881        1.7948253866
 Cd         2.3804046389        5.2452044314       -4.8087230856
 Cd         4.8189783793        4.7184518297       -1.4284065037
 Cd         6.7582269762        3.8401485936        2.0311411066
 Cd         2.6218024608        2.7828967842       -7.7033765575
 Cd         4.8493430948        1.7846645487       -4.5231283166
 Cd         6.7277129462        1.0650180383       -0.9631050488
 Cd         8.8867406526        0.4155739644        2.4347928410
 Cd         4.3617961817       -0.9226061357       -7.7309239899
 Cd         6.7427723240       -1.9756135563       -4.2012697744
 Cd         8.5291282564       -2.6208016365       -0.2527886374
 Se        -9.0547789096        0.2428761747        0.9183209327
 Se        -6.3727634360       -0.6564874096        4.4183076587
 Se        -3.9345373138       -1.3489433114        8.2965230654
 Se        -6.5831276874       -3.7425297576        1.3880855618
 Se        -4.5790800801       -4.2748350076        4.8597284770
 Se        -4.6122321037       -7.7765832550        1.5328407881
 Se        -6.6422654311        3.9855664697        0.4577129613
 Se        -4.0719662010        2.6208501637        3.9142921559
 Se        -1.6333277269        2.0117359662        7.9251220020
 Se        -6.7116662149        0.9828895238       -3.1654738472
 Se        -4.4070685777       -0.2111874185        0.3948932379
 Se        -2.0531397596       -1.1153519809        4.2593840546
 Se         0.4060036773       -1.5661541493        8.0650770154
 Se        -4.4160750750       -3.1299843010       -2.8046647562
 Se        -2.2374494934       -4.0915896351        0.9472052911
 Se         0.1530618678       -4.8127591878        4.4858019238
 Se        -2.4165669325       -7.4206116345       -2.0539529246
 Se        -0.0669641139       -7.8791323583        1.3095396429
 Se        -4.5521252235        7.5948411001       -0.0125905496
 Se        -1.8467515062        6.3632979782        3.5400666695
 Se         0.4037023361        5.8261671969        7.5858666131
 Se        -4.4660274191        4.5539615342       -3.3489540865
 Se        -2.0809870574        3.7152531862        0.3431777098
 Se         0.4982249690        2.6970091997        3.7286744058
 Se         2.7717972546        1.9958711627        7.6262113300
 Se        -4.6131753306        2.0747740551       -6.9049096290
 Se        -2.2788880998        0.8535243355       -3.1260983414
 Se         0.0145510036       -0.1632204113        0.3853956017
 Se         2.3129692771       -1.3189361876        3.9990031941
 Se         4.8631529166       -1.8843031208        7.7354074048
 Se        -2.0702164083       -1.9664156381       -6.4603794034
 Se        -0.0447298364       -3.1599257791       -2.8087912606
 Se         2.2323300565       -4.2314586234        0.7809366852
 Se         4.8362391675       -4.9530892129        4.0967214796
 Se        -0.7551449260       -6.2848128349       -5.8413950642
 Se         1.9250128091       -7.4790432377       -2.6076261031
 Se         4.2593681754       -8.3791777429        0.7364096848
 Se         0.0356459551        7.3686198776       -0.4913341920
 Se         2.3809136173        6.5252191090        3.1424617157
 Se         0.0437168662        4.4288323934       -3.5939972987
 Se         2.5163893793        3.6274410975       -0.0568224404
 Se         4.7726968864        2.4661919727        3.1253348365
 Se         0.0455233769        1.9299628996       -6.9705006829
 Se         2.2758246387        0.7648327689       -3.6570677144
 Se         4.3766497151       -0.2853678035       -0.0177945046
 Se         6.9677170442       -1.1294327012        3.5582491312
 Se         2.2369924118       -2.2681728406       -6.6837662704
 Se         4.3737346555       -3.1974941610       -3.2156618081
 Se         6.4331603852       -4.1116843255        0.4129821055
 Se         4.8515317793        7.5524205365       -0.7459155769
 Se         4.8774827041        4.5489850873       -4.0122243840
 Se         7.0855888765        3.5934523541       -0.6429001596
 Se         4.7816813208        1.5264158655       -7.5555479225
 Se         6.9185482605        0.6112264860       -3.7073721454
 Se         9.1068661738       -0.0626975182       -0.0923251270
  C         6.9966783904       -6.9498402366       -2.8612695423
  H         7.7649322095       -7.1224747738       -3.6684216540
  O         5.8439667710       -6.4672092067       -3.1400994212
  O         7.2884817026       -7.2741140421       -1.6935639808
  C         3.3950657039       -6.2673063144       -6.9491811154
  H         4.3444066225       -6.8936096686       -7.0753272229
  O         3.0188267952       -5.7908792095       -5.7819536603
  O         2.6176961707       -6.1689007566       -7.9239760080
  C         6.3106279493       -2.9078505862       -7.4910558063
  H         7.1299137504       -3.7048862282       -7.4466889051
  O         6.0085421202       -2.3181834748       -6.3473965027
  O         5.9393480496       -2.4742277330       -8.6124627450
  C         8.9774484618       -3.3708806807       -3.4296488835
  H         9.9250180562       -3.8774829974       -3.1826003730
  O         8.5682539261       -3.4148558969       -4.6046170899
  O         8.2717196991       -2.6966737361       -2.5200117799
  C         9.7980747525       -4.6252009442        2.1809981334
  H        10.6408655401       -5.3318691344        2.3887999993
  O         9.7470643071       -4.1804852400        0.9925724684
  O         9.0285472173       -4.5681102089        3.1870360270
  C        -2.8217311730       -8.8884383581        5.3598597307
  H        -2.4154187803       -9.9024293192        5.4343946394
  O        -1.9847245065       -7.9306457888        5.0423234824
  O        -4.0904667795       -8.7274287988        5.4044059150
  C         2.9969219010       -8.6916227678        5.2874265949
  H         2.6967725338       -9.0398269484        6.2934215078
  O         1.9993022063       -8.3578552015        4.5594100415
  O         4.2233785519       -8.6005370479        4.9154136093
  C         2.8793044564       -5.7053269616        8.2324280478
  H         2.3955873073       -6.3773024893        8.9303283437
  O         2.2189443159       -4.8088137654        7.6163388170
  O         4.1498449369       -5.9034562087        8.1535818012
  C        -2.5347133034       -5.9173478313        8.5220071166
  H        -2.0052498086       -6.7390725628        9.0096019785
  O        -1.9214153876       -5.2583245858        7.5983264916
  O        -3.6522438347       -5.5083905867        8.8927496217
  C        -6.8630680677        2.3027059202        7.3892072933
  H        -7.2086193538        3.3071349018        7.3885257928
  O        -5.6212801307        2.1591073813        7.5336913336
  O        -7.6695393642        1.3702498844        7.1999460834
  C        -4.1169963447        6.2828045522        7.2281920640
  H        -5.2418933127        6.2896177269        7.3832000201
  O        -3.5266554876        5.2290319324        6.7738255626
  O        -3.5910747965        7.4673287435        7.3180526878
  C        -6.2567433410        7.1462440376        4.0780924402
  H        -7.2111390447        7.1649409639        4.6689854642
  O        -5.8090470768        6.0478329577        3.6278582463
  O        -5.6127373444        8.2207117054        3.8486939284
  C        -9.2742216723        2.9617576844        4.4604767994
  H        -9.7855372140        3.8838940690        4.7760086716
  O        -8.0588135918        3.0119058793        4.1192686284
  O       -10.0810801161        1.9792431371        4.3921799135
  C        -9.6032807498       -3.5282208013        4.2551676244
  H       -10.5971720209       -3.6001750875        4.7566807035
  O        -9.3832733838       -2.7227913232        3.2942626908
  O        -8.6785578606       -4.3016587471        4.7629613488
  C        -5.4081382378       -6.0792351139       -6.1561958117
  H        -6.0546960796       -6.5859836395       -6.8890942905
  O        -5.3110248801       -6.5040879606       -4.9651699291
  O        -4.7983801377       -5.0927395033       -6.6853039028
  C        -7.4874945404       -7.2705752238       -1.8347938109
  H        -7.8388434959       -7.7173330376       -2.7530342297
  O        -6.3887356542       -6.5549872031       -1.8842851667
  O        -8.0716799631       -7.4409045354       -0.7458208306
  C        -9.2562801575       -3.4269973737       -2.1219764859
  H        -9.5270787848       -4.0663584857       -2.9594189931
  O        -8.1698191435       -2.7554017408       -2.2727142455
  O        -9.8242162108       -3.4939578272       -1.0091988934
  C        -6.7207107993       -1.5101431109       -7.0046021341
  H        -7.7450574417       -1.9674181007       -7.1698505571
  O        -6.3198318226       -1.2781046278       -5.7989932710
  O        -6.0632846191       -1.2634548334       -8.0155056547
  C        -1.9629104602        5.6954907983       -7.4853199116
  H        -1.7770888886        6.7764005651       -7.4923242406
  O        -2.4611841734        5.1867026686       -6.4086953857
  O        -1.7564142283        5.0403925326       -8.5283451792
  C        -1.7168961302        9.0075125365       -3.7839136624
  H        -1.3493405476        9.2660238074       -4.8465614694
  O        -1.7700567683        7.7194505128       -3.5246167825
  O        -1.9637566449        9.8895757428       -2.9408313881
  C         2.5062428692        8.6538906584       -4.1272905467
  H         2.7131102182        9.0638249498       -5.0476060874
  O         2.0944622139        7.4532197336       -4.0307275104
  O         2.6627572315        9.4111587320       -3.1552255605
  C         1.7411624296        5.3672432672       -8.1968700554
  H         1.4358383610        6.4416008070       -8.3632925476
  O         2.2781624576        5.0765931503       -7.0406809032
  O         1.5312465887        4.4833413034       -9.0175693944
  C         9.4768901141        2.6096284637        3.8999975635
  H         9.6131090334        3.4671477718        4.5843902861
  O         8.5279827933        2.7173568134        3.0491690667
  O        10.1885360140        1.5401402069        4.0330838535
  C         6.6326630260        7.0383106770        3.3282006127
  H         7.5082674956        7.1289998248        4.0070788575
  O         6.4944809869        6.1604086128        2.4465530183
  O         5.7954705053        7.9030051687        3.5812748113
  C         4.7447656119        5.8524855639        6.9354042197
  H         5.7085862008        5.7040540943        7.4370666698
  O         4.3285821107        4.9885440106        6.0815262617
  O         4.1456396012        6.9224022080        7.1371551841
  C         7.5603391290        1.7452806734        7.1878897466
  H         8.1158840311        2.6116602203        7.6593692779
  O         6.7458570871        2.0302450956        6.2244503127
  O         7.8435021086        0.5821421754        7.5895220187
     227
 i =        2, time =        2.000, E =       -10.1952112820
 Cd        -8.6170003606        0.4783092771        3.4767480884
 Cd        -5.8707161404       -0.2576889370        7.1136656151
 Cd        -8.4088599179       -2.1551457754        0.3836942625
 Cd        -6.8897100278       -3.2939520565        3.9621494190