     227
 i =        0, time =        0.000, E =         0.7834074911
 Cd        -8.6216924880        0.4810107428        3.4775887729
 Cd        -5.8723589632       -0.2566559957        7.1151373767
 Cd        -8.4076147924       -2.1531404527        0.3867588804
 Cd        -6.8957642261       -3.2896665849        3.9600318291
 Cd        -3.6930098048       -3.6992689615        7.3819491709
 Cd        -6.4429261463       -6.2347087238        0.4622469067
 Cd        -4.3123952394       -6.8285875372        3.9039095072
 Cd        -6.1141073353        3.8626235599        2.9066844924
 Cd        -3.6048790416        2.8797284733        6.5917986711
 Cd        -6.7531255596        1.1841266196       -0.3182182747
 Cd        -4.0437606329        0.0729837467        3.0511954168
 Cd        -1.7753257667       -0.3121054857        6.8316599018
 Cd        -6.3661028473       -1.4630135273       -3.4383357626
 Cd        -4.3602814436       -3.1214810613       -0.1759283953
 Cd        -2.2424276819       -3.6242998489        3.6335413818
 Cd         0.1757294635       -3.9625201566        7.0364714760
 Cd        -4.2692200317       -5.9860442556       -3.0005266361
 Cd        -2.2482225396       -6.7972628816        0.6786391664
 Cd         0.0669003827       -7.3030327295        3.8545421700
 Cd        -4.0792754193        7.4105475565        2.4175118797
 Cd        -1.6116442377        6.4880648240        6.2478272306
 Cd        -4.3308002626        4.8127262164       -0.6762739309
 Cd        -1.8326132452        3.6694977750        3.1598212265
 Cd         0.4939817277        3.1637060931        6.7202662426
 Cd        -4.5980154021        1.9988297698       -4.0880170010
 Cd        -2.1651194586        1.0165564496       -0.4536921834
 Cd         0.1376109507       -0.0659106884        3.1336818174
 Cd         2.6419074521       -0.6636939286        6.8958319365
 Cd        -4.1515129292       -0.5348426091       -6.9620217917
 Cd        -2.2012490343       -1.8491984656       -3.4894107829
 Cd         0.0359311218       -2.8494155653       -0.0264680683
 Cd         2.4407298775       -3.8224684908        3.5289587884
 Cd         4.5907434619       -4.2169180472        6.5928471603
 Cd        -2.6321953796       -4.5685798778       -6.0773989300
 Cd        -0.3638438279       -6.1221236347       -3.0620735359
 Cd         1.9882729153       -6.8506852632       -0.0376753302
 Cd         4.3604701588       -7.5063202656        3.0981086138
 Cd        -2.4313710890        8.2839908015       -1.2010761441
 Cd         0.1210964618        6.7915494583        2.0748938605
 Cd         2.2602783261        6.3879934074        5.9824457591
 Cd        -2.2743307721        5.5403016700       -4.1096429978
 Cd         0.1552258413        4.6164378819       -0.9814446932
 Cd         2.6173372932        3.7540356816        2.4616712460
 Cd         4.3934694910        2.5024270436        5.6448470259
 Cd        -2.3839877703        3.0961459608       -7.5397423510
 Cd        -0.1308699873        1.7716472388       -4.3458913396
 Cd         2.1522040622        0.8595996928       -0.9600505658
 Cd         4.3027041934       -0.4425155449        2.5248589789
 Cd         6.4943132815       -0.6514444341        6.0110723312
 Cd         0.4032906214       -0.5920449882       -7.0625722312
 Cd         2.1504065746       -1.8410095193       -3.9631978812
 Cd         4.1282053355       -2.9764966895       -0.5499119195
 Cd         6.9189885741       -3.8001688729        2.8840486736
 Cd         1.0693858855       -4.7693596381       -6.7909688629
 Cd         3.6529341800       -5.7620820022       -3.6150795142
 Cd         5.7341856059       -6.5625995016       -0.3323817960
 Cd         2.4532379782        8.1225833618       -1.1556872380
 Cd         4.4025673150        7.2904811152        1.7928276254
 Cd         2.3800547108        5.2453457502       -4.8107637235
 Cd         4.8184663347        4.7191125514       -1.4277792117
 Cd         6.7589411702        3.8390778732        2.0295448973
 Cd         2.6210634084        2.7844913241       -7.7035228004
 Cd         4.8495943395        1.7843685348       -4.5225056138
 Cd         6.7261500983        1.0662237140       -0.9642295531
 Cd         8.8881450478        0.4141445330        2.4369093904
 Cd         4.3615782352       -0.9213178924       -7.7328888960
 Cd         6.7438649008       -1.9767569930       -4.2031112584
 Cd         8.5272445020       -2.6218905711       -0.2551455218
 Se        -9.0557725106        0.2424574140        0.9180313808
 Se        -6.3745872764       -0.6570220647        4.4225742627
 Se        -3.9358548519       -1.3506397678        8.2925868769
 Se        -6.5830028390       -3.7408669090        1.3890860046
 Se        -4.5802302415       -4.2716541219        4.8585926421
 Se        -4.6110671623       -7.7792240778        1.5343213278
 Se        -6.6407812351        3.9866809498        0.4586064126
 Se        -4.0705866514        2.6241591830        3.9150270775
 Se        -1.6315747320        2.0143859544        7.9219454430
 Se        -6.7106235468        0.9827493806       -3.1628202938
 Se        -4.4077684895       -0.2106461950        0.3970531668
 Se        -2.0534879979       -1.1190641497        4.2604482105
 Se         0.4069246601       -1.5676855049        8.0617057342
 Se        -4.4126107232       -3.1307459794       -2.8028288282
 Se        -2.2371864822       -4.0884616040        0.9473336128
 Se         0.1541797359       -4.8148952714        4.4843326207
 Se        -2.4147106009       -7.4199706225       -2.0529393442
 Se        -0.0662571417       -7.8800811154        1.3078284855
 Se        -4.5519687636        7.5920037884       -0.0122560791
 Se        -1.8482840651        6.3647212661        3.5390459072
 Se         0.4006735392        5.8241498358        7.5878867146
 Se        -4.4655945585        4.5529209660       -3.3484418515
 Se        -2.0798083538        3.7153034916        0.3451575142
 Se         0.4973892782        2.6967113851        3.7286137790
 Se         2.7724753484        1.9958260876        7.6298945277
 Se        -4.6126224962        2.0736182894       -6.9031574659
 Se        -2.2770211290        0.8531533747       -3.1284312065
 Se         0.0138865169       -0.1636477002        0.3858468104
 Se         2.3115473387       -1.3198431962        4.0017354986
 Se         4.8624545925       -1.8855864388        7.7371297607
 Se        -2.0700877949       -1.9675257511       -6.4603372509
 Se        -0.0447057629       -3.1582708631       -2.8090856920
 Se         2.2343306950       -4.2299664240        0.7817840723
 Se         4.8342987615       -4.9516929708        4.0974643468
 Se        -0.7556003326       -6.2829108386       -5.8406699955
 Se         1.9243057511       -7.4784768035       -2.6074198353
 Se         4.2543989663       -8.3809591814        0.7363809319
 Se         0.0386925703        7.3677075300       -0.4939635450
 Se         2.3791568525        6.5289221229        3.1400383851
 Se         0.0465974103        4.4270318221       -3.5936563407
 Se         2.5167269427        3.6273521599       -0.0581806204
 Se         4.7705604635        2.4670139639        3.1233546104
 Se         0.0435933033        1.9323944164       -6.9695738842
 Se         2.2733127965        0.7623703678       -3.6584263160
 Se         4.3816175435       -0.2841549253       -0.0177063702
 Se         6.9670500347       -1.1290204494        3.5565582379
 Se         2.2410869402       -2.2702007814       -6.6798205275
 Se         4.3723294721       -3.1971869108       -3.2130677403
 Se         6.4331938555       -4.1098532443        0.4136420186
 Se         4.8503033307        7.5509093293       -0.7463548497
 Se         4.8776288797        4.5477652435       -4.0091414448
 Se         7.0830986217        3.5950723552       -0.6434567968
 Se         4.7810064642        1.5273410534       -7.5566303287
 Se         6.9188050062        0.6130038217       -3.7081238627
 Se         9.1066871843       -0.0609359671       -0.0919647969
  C         6.9955771113       -6.9586634775       -2.8583426301
  H         7.7780160969       -7.1271873265       -3.6573399650
  O         5.8389952916       -6.4652991204       -3.1445809228
  O         7.2920676004       -7.2683568805       -1.6893132711
  C         3.3939431960       -6.2668607509       -6.9513074648
  H         4.3245440932       -6.8689211647       -7.0591687882
  O         3.0202466073       -5.7860511295       -5.7843136273
  O         2.6220129789       -6.1746538788       -7.9242101403
  C         6.3116555909       -2.9071154185       -7.4921130606
  H         7.0978863851       -3.7212906458       -7.4285512081
  O         6.0096715894       -2.3219711192       -6.3505932827
  O         5.9403243477       -2.4750431756       -8.6116316973
  C         8.9837561036       -3.3697375837       -3.4349055328
  H         9.9249943929       -3.8864043165       -3.1840078659
  O         8.5659407989       -3.4209184445       -4.6048832464
  O         8.2714489672       -2.6971151254       -2.5207012617
  C         9.7902109758       -4.6282247391        2.1768529346
  H        10.6284324694       -5.3337138149        2.3552924638
  O         9.7484501532       -4.1824896055        0.9942458601
  O         9.0219926648       -4.5705851174        3.1873629795
  C        -2.8252708508       -8.8894178348        5.3653894160
  H        -2.3915771747       -9.8892286280        5.4446685031
  O        -1.9808601030       -7.9304545651        5.0436955975
  O        -4.0908415257       -8.7280019527        5.4030844137
  C         3.0047406823       -8.6887063298        5.2919739424
  H         2.6853413808       -9.0312323512        6.2714246943
  O         1.9985977812       -8.3553887881        4.5599054594
  O         4.2197147413       -8.6069092298        4.9235206312
  C         2.8732291572       -5.7090624943        8.2322507888
  H         2.4095730423       -6.3582442170        8.9295273658
  O         2.2236878889       -4.8031284854        7.6183804854
  O         4.1525405945       -5.8988692439        8.1468427445
  C        -2.5324052264       -5.9090323801        8.5168983878
  H        -2.0058427467       -6.7599986745        9.0204193621
  O        -1.9189018681       -5.2527647032        7.5983339134
  O        -3.6521974131       -5.4981014961        8.8936623702
  C        -6.8661340661        2.3082426882        7.3884767521
  H        -7.2433530482        3.2983326111        7.3747512577
  O        -5.6189307919        2.1553364867        7.5292857639
  O        -7.6694328727        1.3672322100        7.2032576312
  C        -4.1128935570        6.2776012356        7.2258109093
  H        -5.2184092536        6.2949225170        7.4003980339
  O        -3.5215502414        5.2331222329        6.7794929280
  O        -3.5956064510        7.4679880815        7.3184340370
  C        -6.2584500423        7.1467273309        4.0778865765
  H        -7.2018864753        7.1620259062        4.6862261037
  O        -5.8042352338        6.0508881806        3.6277903665
  O        -5.6141473350        8.2227071687        3.8530055117
  C        -9.2670155991        2.9624473135        4.4549609073
  H        -9.7760873251        3.8307467380        4.7753730710
  O        -8.0580447847        3.0137717908        4.1153681461
  O       -10.0869615960        1.9755230626        4.3964141791
  C        -9.5997958208       -3.5202239981        4.2555074891
  H       -10.6284324694       -3.6062117458        4.7363993397
  O        -9.3836198173       -2.7271085544        3.2939504316
  O        -8.6749593009       -4.3055307223        4.7674147240
  C        -5.4063829718       -6.0836320759       -6.1576393485
  H        -6.0390997038       -6.5934387315       -6.8768176703
  O        -5.3157147411       -6.5042627408       -4.9638375967
  O        -4.7997118332       -5.0931497246       -6.6842330004
  C        -7.4812021438       -7.2683192216       -1.8337008205
  H        -7.8430239833       -7.7214409635       -2.7403108931
  O        -6.3847231004       -6.5596142310       -1.8855223803
  O        -8.0870004405       -7.4369608581       -0.7449951352
  C        -9.2637717352       -3.4248031045       -2.1287629167
  H        -9.5435102925       -4.0726156799       -2.9624854104
  O        -8.1685743898       -2.7562864935       -2.2769679175
  O        -9.8293124780       -3.4993302663       -1.0042472880
  C        -6.7198117275       -1.5155721631       -7.0057360974
  H        -7.7266400310       -1.9701098143       -7.1795729881
  O        -6.3208037730       -1.2812141421       -5.7891801227
  O        -6.0546670581       -1.2647410752       -8.0219575549
  C        -1.9610306020        5.6962737072       -7.4797868569
  H        -1.8068881661        6.7616764611       -7.4798700689
  O        -2.4613788677        5.1953402046       -6.4147373301
  O        -1.7592038190        5.0404242691       -8.5376948407
  C        -1.7153677193        9.0065729983       -3.7807068554
  H        -1.3518565997        9.2891789052       -4.8285272378
  O        -1.7735635219        7.7204009534       -3.5311974415
  O        -1.9589811591        9.8892286280       -2.9296575010
  C         2.5176986766        8.6527359013       -4.1276241396
  H         2.7356319561        9.0838176512       -5.0545617483
  O         2.0941304229        7.4607563111       -4.0382054964
  O         2.6632020791        9.4136986823       -3.1567247192
  C         1.7405814703        5.3615037054       -8.2026998584
  H         1.4592813282        6.4433815072       -8.3446733349
  O         2.2712544771        5.0744229803       -7.0359036782
  O         1.5374971892        4.4786315137       -9.0204193621
  C         9.4791869119        2.6134878200        3.9079418032
  H         9.6264681644        3.4611325178        4.5867541287
  O         8.5294682966        2.7206869475        3.0468687327
  O        10.1884170796        1.5361363159        4.0354546634
  C         6.6320899766        7.0427804887        3.3240585285
  H         7.5183451153        7.1103565644        4.0025867163
  O         6.4921259472        6.1579139584        2.4473334656
  O         5.8014508194        7.8970951585        3.5804466065
  C         4.7468288793        5.8510846562        6.9391041765
  H         5.6837062732        5.7110173508        7.4566454645
  O         4.3315486404        4.9881730889        6.0840680113
  O         4.1390624477        6.9214380767        7.1338855679
  C         7.5642974957        1.7429307679        7.1823006621
  H         8.1116275708        2.6102062210        7.6466333920
  O         6.7423080014        2.0330978891        6.2208765696
  O         7.8434776238        0.5800715711        7.5931108165
     227
 i =        1, time =        1.000, E =         0.5594029311
 Cd        -8.6196905161        0.4799456801        3.4779811066
 Cd        -5.8729201371       -0.2563855614        7.1140150398
 Cd        -8.4085686583       -2.1550303068        0.3844759320
 Cd        -6.8933954625       -3.2917663978        3.9616343053
 Cd        -3.6899265419       -3.7017654455        7.3822536558
 Cd        -6.4426386124       -6.2359264482        0.4637043588
 Cd        -4.3121524618       -6.8296165927        3.9063316614
 Cd        -6.1169810913        3.8613289994        2.9069812609
 Cd        -3.6078042818        2.8818288652        6.5900714784
 Cd        -6.7533991897        1.1874538722       -0.3193173316
 Cd        -4.0448517924        0.0755108745        3.0499311571
 Cd        -1.7741614243       -0.3133386587        6.8333184225
 Cd        -6.3665186948       -1.4640805342       -3.4405731182
 Cd        -4.3620365204       -3.1213248835       -0.1743183399
 Cd        -2.2424805641       -3.6224059924        3.6334871986
 Cd         0.1784573991       -3.9622832279        7.0372148401
 Cd        -4.2705570203       -5.9874844267       -2.9994302787
 Cd        -2.2497406994       -6.7961286732        0.6787208317
 Cd         0.0677001041       -7.3041514710        3.8548865709
 Cd        -4.0802522131        7.4119973572        2.4200996277
 Cd        -1.6122286496        6.4886032876        6.2505078560
 Cd        -4.3325326949        4.8131152269       -0.6768705749
 Cd        -1.8303835422        3.6699878775        3.1585100742
 Cd         0.4898436952        3.1635040130        6.7200556355
 Cd        -4.5985775147        2.0003010441       -4.0897704366
 Cd        -2.1632278859        1.0186806294       -0.4516823442
 Cd         0.1383325417       -0.0677049538        3.1342642836
 Cd         2.6423701240       -0.6633387069        6.8953864314
 Cd        -4.1549281972       -0.5352129069       -6.9613867400
 Cd        -2.2033254304       -1.8486449349       -3.4904876497
 Cd         0.0357077492       -2.8475736578       -0.0251516441
 Cd         2.4399322038       -3.8224888424        3.5301462098
 Cd         4.5936700921       -4.2158180169        6.5952379049
 Cd        -2.6328998142       -4.5696485722       -6.0785724414
 Cd        -0.3607098217       -6.1203767625       -3.0632847361
 Cd         1.9867645719       -6.8521809430       -0.0372399406
 Cd         4.3579046773       -7.5045617755        3.0985399224
 Cd        -2.4311416280        8.2874433170       -1.2013061999
 Cd         0.1211317589        6.7915586771        2.0736078217
 Cd         2.2592941299        6.3883574609        5.9816836586
 Cd        -2.2734091521        5.5416312826       -4.1128369953
 Cd         0.1544017475        4.6149224194       -0.9818154873
 Cd         2.6161646512        3.7540827918        2.4621191831
 Cd         4.3943525768        2.5017649462        5.6454580054
 Cd        -2.3854924134        3.0943979592       -7.5404490555
 Cd        -0.1311843620        1.7710384465       -4.3471823183
 Cd         2.1529575080        0.8604706966       -0.9631716834
 Cd         4.3040369963       -0.4400685578        2.5257433445
 Cd         6.4922106491       -0.6511282750        6.0115873974
 Cd         0.4032649314       -0.5929793628       -7.0625849864
 Cd         2.1510172511       -1.8415758798       -3.9632658165
 Cd         4.1301358681       -2.9777305983       -0.5482955446
 Cd         6.9205908889       -3.7968457657        2.8867277790
 Cd         1.0703590953       -4.7686606662       -6.7912982783
 Cd         3.6510537345       -5.7625826888       -3.6180259349
 Cd         5.7332557983       -6.5637917697       -0.3333830114
 Cd         2.4541081076        8.1231231610       -1.1572367016
 Cd         4.4063707033        7.2901995646        1.7951005249
 Cd         2.3803233866        5.2454852500       -4.8089047873
 Cd         4.8183887308        4.7188483852       -1.4275839097
 Cd         6.7588078270        3.8406961931        2.0313375164
 Cd         2.6204355924        2.7839696428       -7.7036159426
 Cd         4.8479766428        1.7853486878       -4.5238155467
 Cd         6.7273637480        1.0640421446       -0.9631530240
 Cd         8.8871185970        0.4160974431        2.4357029522
 Cd         4.3618865005       -0.9244551631       -7.7313365882
 Cd         6.7429165123       -1.9762804313       -4.2014495786
 Cd         8.5296318232       -2.6211905694       -0.2529973905
 Se        -9.0562045972        0.2447791484        0.9174974064
 Se        -6.3723089146       -0.6563424085        4.4184551394
 Se        -3.9331192445       -1.3480304194        8.2990143975
 Se        -6.5824059400       -3.7427616722        1.3879813459
 Se        -4.5791459891       -4.2749773746        4.8600939070
 Se        -4.6123401242       -7.7785537608        1.5319231309
 Se        -6.6436918210        3.9856736385        0.4553911184
 Se        -4.0723440266        2.6201320166        3.9150861907
 Se        -1.6320741537        2.0123264041        7.9276680996
 Se        -6.7144074809        0.9849333599       -3.1645185647
 Se        -4.4076779596       -0.2118587142        0.3943900548
 Se        -2.0528014555       -1.1150300428        4.2601446093
 Se         0.4056272228       -1.5654340868        8.0664053685
 Se        -4.4162622873       -3.1311476239       -2.8055174334
 Se        -2.2365023603       -4.0918367069        0.9474947406
 Se         0.1525569984       -4.8117754713        4.4859273363
 Se        -2.4159431435       -7.4228645247       -2.0529821249
 Se        -0.0655556076       -7.8811099911        1.3093864650
 Se        -4.5549084877        7.5947796191       -0.0145517142
 Se        -1.8485487506        6.3632537881        3.5416056827
 Se         0.4040150737        5.8253749676        7.5892865236
 Se        -4.4682858804        4.5540299401       -3.3489029357
 Se        -2.0807481964        3.7151541049        0.3435619338
 Se         0.4990929097        2.6963166895        3.7295681972
 Se         2.7716265375        1.9958687818        7.6278347621
 Se        -4.6155687284        2.0750168351       -6.9048061625
 Se        -2.2795016817        0.8534538316       -3.1262295874
 Se         0.0151726552       -0.1633994941        0.3857295233
 Se         2.3128223808       -1.3177792471        4.0005281237
 Se         4.8636377762       -1.8839451812        7.7371629603
 Se        -2.0686468298       -1.9666528332       -6.4602806717
 Se        -0.0437937631       -3.1608735112       -2.8087352413
 Se         2.2320485650       -4.2319793400        0.7815482307
 Se         4.8364467864       -4.9538839683        4.0961535616
 Se        -0.7551802735       -6.2876519156       -5.8409246486
 Se         1.9249510954       -7.4807111444       -2.6082387757
 Se         4.2585146776       -8.3817474448        0.7348562670
 Se         0.0348845844        7.3687628322       -0.4919764796
 Se         2.3816326100        6.5246612305        3.1445986575
 Se         0.0444315160        4.4285314228       -3.5947789113
 Se         2.5167774014        3.6271688479       -0.0589451128
 Se         4.7736374139        2.4647194341        3.1241304491
 Se         0.0454559793        1.9317874085       -6.9715690064
 Se         2.2765200333        0.7658172367       -3.6575294282
 Se         4.3774234223       -0.2852045544       -0.0194161221
 Se         6.9676874492       -1.1298110234        3.5566459115
 Se         2.2386065799       -2.2699084388       -6.6837457808
 Se         4.3745182801       -3.1972763427       -3.2161597159
 Se         6.4326555402       -4.1118814956        0.4115443913
 Se         4.8547487338        7.5522138220       -0.7470721246
 Se         4.8782729082        4.5491671106       -4.0137490945
 Se         7.0871202107        3.5947891948       -0.6430992732
 Se         4.7847371243        1.5280486019       -7.5553021132
 Se         6.9209642863        0.6110998482       -3.7067822385
 Se         9.1079397421       -0.0619562239       -0.0938538489
  C         6.9966717911       -6.9498393247       -2.8612650460
  H         7.7649322095       -7.1224747738       -3.6684216540
  O         5.8450611813       -6.4675060504       -3.1398758909
  O         7.2907572094       -7.2750610284       -1.6955733585
  C         3.3950605943       -6.2673052269       -6.9491770233
  H         4.3444066225       -6.8936096686       -7.0753272229
  O         3.0188949246       -5.7911217633       -5.7835222749
  O         2.6182972419       -6.1693570010       -7.9243592843
  C         6.3106306560       -2.9078450985       -7.4910470563
  H         7.1299137504       -3.7048862282       -7.4466889051
  O         6.0082069869       -2.3186007954       -6.3487097940
  O         5.9398899392       -2.4748125510       -8.6127122904
  C         8.9774470937       -3.3708709809       -3.4296406195
  H         9.9250180562       -3.8774829974       -3.1826003730
  O         8.5689618351       -3.4154948541       -4.6047471602
  O         8.2720316695       -2.6970866233       -2.5210981634
  C         9.7980687893       -4.6251989327        2.1809979854
  H        10.6408655401       -5.3318691344        2.3887999993
  O         9.7475968234       -4.1812201881        0.9932147393
  O         9.0303079454       -4.5687331056        3.1872809637
  C        -2.8217328560       -8.8884359829        5.3598510677
  H        -2.4154187803       -9.9024293192        5.4343946394
  O        -1.9851980662       -7.9307236914        5.0426325806
  O        -4.0903601330       -8.7278405409        5.4048046928
  C         2.9969255721       -8.6916194208        5.2874203593
  H         2.6967725338       -9.0398269484        6.2934215078
  O         2.0005200485       -8.3584265854        4.5598838546
  O         4.2230513971       -8.6027161477        4.9191553347
  C         2.8793038181       -5.7053180215        8.2324284973
  H         2.3955873073       -6.3773024893        8.9303283437
  O         2.2202700589       -4.8094847879        7.6167160870
  O         4.1495617455       -5.9043488752        8.1543084166
  C        -2.5347170129       -5.9173421837        8.5220012970
  H        -2.0052498086       -6.7390725628        9.0096019785
  O        -1.9209615220       -5.2591548753        7.5984448080
  O        -3.6522005819       -5.5092237463        8.8933619508
  C        -6.8630600129        2.3026970781        7.3892034121
  H        -7.2086193538        3.3071349018        7.3885257928
  O        -5.6222866041        2.1592866729        7.5341801918
  O        -7.6699963465        1.3707138006        7.1998885539
  C        -4.1169850389        6.2828022146        7.2281914420
  H        -5.2418933127        6.2896177269        7.3832000201
  O        -3.5275786697        5.2294282237        6.7740917181
  O        -3.5915015117        7.4674838994        7.3181901037
  C        -6.2567395999        7.1462466463        4.0780823514
  H        -7.2111390447        7.1649409639        4.6689854642
  O        -5.8090982682        6.0488258961        3.6285277669
  O        -5.6140644355        8.2213546616        3.8500269143
  C        -9.2742239737        2.9617477623        4.4604697027
  H        -9.7855372140        3.8838940690        4.7760086716
  O        -8.0592171734        3.0117878294        4.1196566893
  O       -10.0820497497        1.9802929740        4.3928799366
  C        -9.6032775630       -3.5282185781        4.2551656751
  H       -10.5971720209       -3.6001750875        4.7566807035
  O        -9.3833250578       -2.7226921720        3.2941980663
  O        -8.6808192509       -4.3029380770        4.7639864320
  C        -5.4081299555       -6.0792336868       -6.1561941980
  H        -6.0546960796       -6.5859836395       -6.8890942905
  O        -5.3117624294       -6.5043531872       -4.9665763948
  O        -4.7997126473       -5.0930009641       -6.6855949063
  C        -7.4874858512       -7.2705760224       -1.8347905577
  H        -7.8388434959       -7.7173330376       -2.7530342297
  O        -6.3891938453       -6.5551428464       -1.8850136502
  O        -8.0723119116       -7.4413026055       -0.7463070141
  C        -9.2562753805       -3.4269927315       -2.1219693264
  H        -9.5270787848       -4.0663584857       -2.9594189931
  O        -8.1700541490       -2.7556680169       -2.2725484857
  O        -9.8245857863       -3.4944161267       -1.0096390817
  C        -6.7207046365       -1.5101414740       -7.0046001868
  H        -7.7450574417       -1.9674181007       -7.1698505571
  O        -6.3199394310       -1.2781962356       -5.7999090303
  O        -6.0645159615       -1.2640089595       -8.0161528059
  C        -1.9629181096        5.6954820892       -7.4853152716
  H        -1.7770888886        6.7764005651       -7.4923242406
  O        -2.4612089398        5.1873301244       -6.4094487671
  O        -1.7558631098        5.0419017121       -8.5290502250
  C        -1.7168981947        9.0075098266       -3.7839047242
  H        -1.3493405476        9.2660238074       -4.8465614694
  O        -1.7696008369        7.7206769523       -3.5247111243
  O        -1.9635713662        9.8899950825       -2.9413574793
  C         2.5062499833        8.6538861533       -4.1272843027
  H         2.7131102182        9.0638249498       -5.0476060874
  O         2.0942771026        7.4541570999       -4.0303873718
  O         2.6627538294        9.4115758883       -3.1559289817
  C         1.7411648927        5.3672334464       -8.1968725546
  H         1.4358383610        6.4416008070       -8.3632925476
  O         2.2778679294        5.0771214499       -7.0427481345
  O         1.5308780890        4.4838757273       -9.0179063775
  C         9.4768856370        2.6096252163        3.8999906203
  H         9.6131090334        3.4671477718        4.5843902861
  O         8.5287943831        2.7174486737        3.0499766188
  O        10.1890677148        1.5406654150        4.0338477458
  C         6.6326569145        7.0383096354        3.3281939689
  H         7.5082674956        7.1289998248        4.0070788575
  O         6.4947621299        6.1610529886        2.4469373554
  O         5.7960815429        7.9031991793        3.5821248341
  C         4.7447567806        5.8524855490        6.9354021992
  H         5.7085862008        5.7040540943        7.4370666698
  O         4.3289285616        4.9886428877        6.0815141747
  O         4.1472036210        6.9228063813        7.1380100774
  C         7.5603341796        1.7452697485        7.1878911016
  H         8.1158840311        2.6116602203        7.6593692779
  O         6.7463765346        2.0302301265        6.2245120231
  O         7.8438826141        0.5825181745        7.5898772123
     227
 i =        2, time =        2.000, E =        -0.0766714334
 Cd        -8.6184079193        0.4795335132        3.4799963174
 Cd        -5.8762225491       -0.2544671180        7.1121558784
 Cd        -8.4102835934       -2.1586893427        0.3806678057
 Cd        -6.8923533588       -3.2937691139        3.9642680658