#     Step Nr.          Time[fs]        Kin.[a.u.]          Temp[K]            Pot.[a.u.]        Cons Qty[a.u.]        UsedTime[s]
         0            0.000000         0.320640054       300.000000000         0.783407491         1.104047545         0.000000000
         1            1.000000         0.541982716       507.094521963         0.559402931         1.101800692         0.359975000
         2            2.000000         1.170584650      1095.232461255        -0.076671433         1.095931725         0.027014000
         3            3.000000         2.117021248      1980.745597997        -1.031730765         1.088504119         0.027621999
         4            4.000000         3.268347364      3057.959224344        -2.189057637         1.081645063         0.027161000
         5            5.000000         4.504836872      4214.854154619        -3.435138886         1.076477409         0.027631000
         6            6.000000         5.745768422      5375.905186022        -4.680117561         1.072898280         0.026004001
         7            7.000000         6.918030140      6472.706760210        -5.859662800         1.071142440         0.027449000
         8            8.000000         7.982407125      7468.568294492        -6.932693540         1.069892568         0.026767001
         9            9.000000         8.916826857      8342.838107661        -7.873163280         1.070223897         0.064313999
        10           10.000000         9.710724822      9085.631737821        -8.674333393         1.071319083         0.027716001
        11           11.000000        10.376394603      9708.451413846        -9.346323146         1.073061227         0.027015000
        12           12.000000        10.936724963     10232.712516496        -9.912615611         1.075715314         0.029946000
        13           13.000000        11.415831959     10680.978718595       -10.405218827         1.077233205         0.030328000
        14           14.000000        11.849915723     11087.119896356       -10.849031406         1.078491232         0.032095999
        15           15.000000        12.256631981     11467.655254087       -11.259273486         1.078684213         0.277875001
        16           16.000000        12.636129996     11822.724445301       -11.643245512         1.080062399         0.031373000
        17           17.000000        12.990642223     12154.416219576       -12.012777223         1.081104777         0.028679000
        18           18.000000        13.349793005     12490.447957990       -12.384727217         1.082588061         0.030142999
        19           19.000000        13.730815828     12846.943803220       -12.780100716         1.083620018         0.031278000
        20           20.000000        14.150675718     13239.776718764       -13.208677979         1.084586481         0.032370000
        21           21.000000        14.605834813     13665.636578838       -13.671668534         1.083768076         0.048641000
        22           22.000000        15.079114407     14108.450496148       -14.158317752         1.082802361         0.032433000
        23           23.000000        15.563154122     14561.331890716       -14.653999839         1.081856764         0.029283000
        24           24.000000        16.046603207     15013.660675107       -15.147344315         1.081591201         0.028712000
        25           25.000000        16.525925657     15462.128460877       -15.635539405         1.082203357         0.027540999
        26           26.000000        16.989260132     15895.637440482       -16.120784431         1.082721808         0.287889000
        27           27.000000        17.465813413     16341.514313954       -16.604847720         1.082129826         0.027574000
        28           28.000000        17.932872885     16778.508507412       -17.081073092         1.082247182         0.029817000
        29           29.000000        18.387306122     17203.689233812       -17.540668185         1.081710666         0.029456001
        30           30.000000        18.805653594     17595.107088162       -17.971220127         1.082165068         0.038892000
        31           31.000000        19.181312387     17946.584193098       -18.367060049         1.081743187         0.025842000
        32           32.000000        19.521011084     18264.416005227       -18.727757339         1.082827619         0.032536999
        33           33.000000        19.854114263     18576.076861898       -19.060380831         1.083243329         0.028568001
        34           34.000000        20.141753357     18845.200220736       -19.366906755         1.083015941         0.030671000
        35           35.000000        20.407525834     19093.864547694       -19.643806650         1.082271550         0.038349001
        36           36.000000        20.632827605     19304.663325447       -19.884547324         1.082494830         0.257413999
        37           37.000000        20.831662900     19490.699310831       -20.093353622         1.082884085         0.026551001
        38           38.000000        21.004989864     19652.868973345       -20.277096864         1.083963492         0.026552000
        39           39.000000        21.166781883     19804.246211008       -20.447305574         1.085227797         0.026926000
        40           40.000000        21.316682084     19944.497124283       -20.616468618         1.085643517         0.026000000
        41           41.000000        21.474421325     20092.082467550       -20.788560429         1.085531243         0.037968000
        42           42.000000        21.627178023     20235.006001018       -20.957792349         1.085256008         0.025837000
        43           43.000000        21.757639503     20357.069490723       -21.113438658         1.084534450         0.028062000
        44           44.000000        21.877881173     20469.571034610       -21.248970145         1.084570665         0.026634000
        45           45.000000        21.979790829     20564.920621879       -21.365999897         1.085253301         0.289105000
        46           46.000000        22.065994889     20645.575604661       -21.471131474         1.084612499         0.026069000
        47           47.000000        22.148180084     20722.470422424       -21.567532984         1.084374107         0.026632000
        48           48.000000        22.215631552     20785.579944917       -21.654133405         1.084867850         0.025311000
        49           49.000000        22.263493395     20830.360852875       -21.728047972         1.084651896         0.036777000
        50           50.000000        22.297004292     20861.714606223       -21.784352118         1.084316910         0.028115001
        51           51.000000        22.310219793     20874.079406743       -21.821639467         1.085517051         0.027934000
        52           52.000000        22.320461546     20883.661883695       -21.851248549         1.086872900         0.271239000
        53           53.000000        22.335032746     20897.295115276       -21.888311225         1.087348683         0.026276999
        54           54.000000        22.372635681     20932.477495682       -21.941745656         1.087080715         0.028600001
        55           55.000000        22.417730947     20974.669916047       -22.010455218         1.085687141         0.027438000
        56           56.000000        22.470609683     21024.144772583       -22.082177581         1.084287199         0.046290000
        57           57.000000        22.515147477     21065.815606156       -22.147290214         1.084641953         0.026395000
        58           58.000000        22.560567819     21108.312176706       -22.208424647         1.084255095         0.026468000
        59           59.000000        22.593247652     21138.888362650       -22.269063322         1.083652264         0.311015000
        60           60.000000        22.642033861     21184.534134126       -22.333743335         1.082750543         0.040583001
        61           61.000000        22.688726144     21228.220768663       -22.398162317         1.082982580         0.045229000
        62           62.000000        22.731309271     21268.062759377       -22.453203692         1.083793474         0.034921000
        63           63.000000        22.758538247     21293.538968244       -22.492978062         1.083683841         0.034230000
        64           64.000000        22.760761327     21295.618945472       -22.517059910         1.084491538         0.037694000
        65           65.000000        22.754197451     21289.477595041       -22.534409099         1.084676347         0.298998999
        66           66.000000        22.758358526     21293.370815899       -22.552730210         1.085703039         0.030363001
        67           67.000000        22.770902204     21305.107039620       -22.581315724         1.085578705         0.028720999
        68           68.000000        22.780554403     21314.137912709       -22.617081937         1.086697187         0.028609000
        69           69.000000        22.793292857     21326.056374901       -22.654635192         1.085873290         0.029990001
        70           70.000000        22.804616730     21336.651314459       -22.685960652         1.085158616         0.295735000
        71           71.000000        22.812221108     21343.766187680       -22.710157304         1.085199330         0.027055000
        72           72.000000        22.813495734     21344.958763979       -22.731349499         1.085462224         0.029650000
        73           73.000000        22.814311223     21345.721758844       -22.754595847         1.085027719         0.036120000
        74           74.000000        22.818143292     21349.307152092       -22.777952907         1.085368105         0.031060000
        75           75.000000        22.824418588     21355.178498273       -22.796797062         1.085256991         0.293539000
        76           76.000000        22.809790776     21341.492299302       -22.804779619         1.084658482         0.027736000
        77           77.000000        22.785140020     21318.428347610       -22.799633204         1.084491238         0.026907001
        78           78.000000        22.754749743     21289.994335265       -22.785550722         1.085586925         0.040809000
        79           79.000000        22.728492232     21265.427057794       -22.775583926         1.085511541         0.028777000
        80           80.000000        22.724932675     21262.096634555       -22.777313540         1.086733521         0.292626000
        81           81.000000        22.713793270     21251.674288544       -22.794070293         1.085847015         0.037853000
        82           82.000000        22.715983015     21253.723076122       -22.815817215         1.085802932         0.030292001
        83           83.000000        22.718809266     21256.367398066       -22.835382781         1.084787280         0.029503999
        84           84.000000        22.712012539     21250.008185767       -22.846175930         1.085111329         0.031638000
        85           85.000000        22.699542599     21238.340953023       -22.852758086         1.086211097         0.252669000
        86           86.000000        22.691035986     21230.381922881       -22.862498162         1.086113633         0.029334000
        87           87.000000        22.689205556     21228.669320729       -22.875380947         1.086538235         0.035833000
        88           88.000000        22.686082482     21225.747283439       -22.888358960         1.085096388         0.034360000
        89           89.000000        22.670561653     21211.225551552       -22.890666055         1.084866489         0.033915999
        90           90.000000        22.640835070     21183.412510691       -22.878868293         1.084592258         0.275473000
        91           91.000000        22.609869577     21154.440310337       -22.855505985         1.084888565         0.028513000
        92           92.000000        22.575004173     21121.819241569       -22.831448373         1.084221821         0.030751999
        93           93.000000        22.537955932     21087.155848227       -22.810156357         1.084461460         0.029557000
        94           94.000000        22.502065568     21053.575798289       -22.794533133         1.084367469         0.034190000
        95           95.000000        22.478019293     21031.077415595       -22.780698247         1.084222671         0.282573001
        96           96.000000        22.441798913     20997.188592970       -22.762688130         1.084509796         0.041746000
        97           97.000000        22.416454536     20973.475668769       -22.741732083         1.085407369         0.028377000
        98           98.000000        22.383606724     20942.742316937       -22.727711833         1.084823610         0.028558999
        99           99.000000        22.366630206     20926.858601421       -22.724415502         1.084810957         0.029795000
       100          100.000000        22.355646582     20916.582009022       -22.732288174         1.085435129         0.021921000
