 DBCSR| Multiplication driver                                               BLAS
 DBCSR| Multrec recursion limit                                              512
 DBCSR| Multiplication stack size                                           1000
 DBCSR| Maximum elements for images                                    UNLIMITED
 DBCSR| Multiplicative factor virtual images                                   1
 DBCSR| Multiplication size stacks                                             3


  **** **** ******  **  PROGRAM STARTED AT               2020-04-23 18:03:15.189
 ***** ** ***  *** **   PROGRAM STARTED ON                     bass-macbook.home
 **    ****   ******    PROGRAM STARTED BY                              bvanbeek
 ***** **    ** ** **   PROGRAM PROCESS ID                                 96259
  **** **  *******  **  PROGRAM STARTED IN /Users/bvanbeek/Documents/GitHub/auto
                                           -FOX/FOX/examples/private/MM_MD_workd
                                           ir/md.028

 CP2K| version string:                                          CP2K version 6.1
 CP2K| source code revision number:                                    svn:18464
 CP2K| cp2kflags: omp no_statm_access accelerate                                
 CP2K| is freely available from                            https://www.cp2k.org/
 CP2K| Program compiled at                         Fri Apr 19 11:24:34 CEST 2019
 CP2K| Program compiled on                                         192.168.1.124
 CP2K| Program compiled for                       Darwin-IntelMacintosh-gfortran
 CP2K| Data directory path            /Users/bvanbeek/Documents/GitHub/cp2k/data
 CP2K| Input file name                                                 md.028.in

 GLOBAL| Force Environment number                                              1
 GLOBAL| Basis set file name                                           BASIS_SET
 GLOBAL| Potential file name                                           POTENTIAL
 GLOBAL| MM Potential file name                                     MM_POTENTIAL
 GLOBAL| Coordinate file name                                      __STD_INPUT__
 GLOBAL| Method name                                                        CP2K
 GLOBAL| Project name                                                       cp2k
 GLOBAL| Preferred FFT library                                             FFTW3
 GLOBAL| Preferred diagonalization lib.                                       SL
 GLOBAL| Run type                                                             MD
 GLOBAL| All-to-all communication in single precision                          F
 GLOBAL| FFTs using library dependent lengths                                  F
 GLOBAL| Global print level                                                  LOW
 GLOBAL| Total number of message passing processes                             1
 GLOBAL| Number of threads for this process                                    4
 GLOBAL| This output is from process                                           0
 GLOBAL| CPU model name : UNKNOWN

 MEMORY| system memory details [Kb]
 MEMORY|                        rank 0           min           max       average
 MEMORY| MemTotal                    0             0             0             0
 MEMORY| MemFree                     0             0             0             0
 MEMORY| Buffers                     0             0             0             0
 MEMORY| Cached                      0             0             0             0
 MEMORY| Slab                        0             0             0             0
 MEMORY| SReclaimable                0             0             0             0
 MEMORY| MemLikelyFree               0             0             0             0

 WARNING : FFT library FFTW3 is not available  Trying FFTSG as a default


                      ************* ******** ***********   
                     ************* **********************  
                     ****     **** ****      ***********   
                     ******** ****  *******     ****       
                     *******  ****   *******   ****        
                     ****     ****       ****  ****        
                     ****     **** **********  ****        
                      ****     **** ********    ****       
                     FRONTIERS IN SIMULATION TECHNOLOGY    
                                                           
                        C.J. Mundy, S. Balasubramanian,    
                     Ken Bagchi, J. Hutter, Ari Seitsonen  
                      IFW Kuo, T. Laino, J. VandeVondele   
                                 Version 1.0               

                                                           

 EWALD|                                                                 not used
     CHM BOND            1 C_1 O_1    525.00000000000000        1.2600000000000000     
     CHM BOND            2 C_1 H_1    238.00000000000000        1.1422000000000001     
     CHM BEND            1 O_1 C_1 O_1    100.00000000000000        128.00000000000000     
     CHM UB            1 O_1 C_1 O_1    70.000000000000000        2.2587000000000002     
     CHM BEND            2 O_1 C_1 H_1    45.000000000000000        116.00000000000000     
     CHM IMPROPERS            1 C_1 O_1 O_1 H_1    67.000000000000000        0.0000000000000000     
     CHM NONBOND            1 H_1   -4.5999999999999999E-002  0.90000000000000002     
     CHM NONBOND            2 C_1   -7.0000000000000007E-002   2.0000000000000000     
     CHM NONBOND            3 O_1  -0.12000000000000000        1.7000000000000000     
     Found UB O_1 C_1 O_1

 FORCEFIELD| WARNING: A non Critical ForceField parameter is missing! CP2K GOES!
 FORCEFIELD| Non critical parameters are:Urey-Bradley,Torsions,Impropers, Opbends and 1-4
 FORCEFIELD| All missing parameters will not contribute to the potential energy!

 FORCEFIELD| Missing Urey-Bradley      ( O_1, C_1, H_1)                         
 FORCEFIELD| Missing Improper          ( C_1, H_1, O_1, O_1)                    
 FORCEFIELD| Missing Out of plane bend ( H_1, O_1, O_1, C_1)                    
 Charge Checking ::C_1CD                                                                              
 Charge Checking ::CDCD                                                                              

 *** WARNING in force_fields_all.F:3322 :: Multiple Charge declarations: ( ***
 *** CD ) overwriting!                                                     ***

 Charge Checking ::O_1CD                                                                              
 Charge Checking ::SECD                                                                              
 Charge Checking ::C_1SE                                                                              
 Charge Checking ::CDSE                                                                              
 Charge Checking ::O_1SE                                                                              
 Charge Checking ::SESE                                                                              

 *** WARNING in force_fields_all.F:3322 :: Multiple Charge declarations: ( ***
 *** SE ) overwriting!                                                     ***

 Charge Checking ::C_1C_1                                                                             

 *** WARNING in force_fields_all.F:3322 :: Multiple Charge declarations: ( ***
 *** C_1 ) overwriting!                                                    ***

 Charge Checking ::CDC_1                                                                             
 Charge Checking ::O_1C_1                                                                             
 Charge Checking ::SEC_1                                                                             
 Charge Checking ::C_1H_1                                                                             
 Charge Checking ::CDH_1                                                                             
 Charge Checking ::O_1H_1                                                                             
 Charge Checking ::SEH_1                                                                             
 Charge Checking ::C_1O_1                                                                             
 Charge Checking ::CDO_1                                                                             
 Charge Checking ::O_1O_1                                                                             

 *** WARNING in force_fields_all.F:3322 :: Multiple Charge declarations: ( ***
 *** O_1 ) overwriting!                                                    ***

 Charge Checking ::SEO_1                                                                             
 CHARGE_INFO| Total Charge of the Classical System:                    12.232810
 Matching kinds for MM_RADIUS :: 'CD' with 'C_1'
 Matching kinds for MM_RADIUS :: 'CD' with 'CD'
 Matching kinds for MM_RADIUS :: 'CD' with 'H_1'
 Matching kinds for MM_RADIUS :: 'CD' with 'O_1'
 Matching kinds for MM_RADIUS :: 'CD' with 'SE'
 Matching kinds for MM_RADIUS :: 'SE' with 'C_1'
 Matching kinds for MM_RADIUS :: 'SE' with 'CD'
 Matching kinds for MM_RADIUS :: 'SE' with 'H_1'
 Matching kinds for MM_RADIUS :: 'SE' with 'O_1'
 Matching kinds for MM_RADIUS :: 'SE' with 'SE'
 Matching kinds for MM_RADIUS :: 'C_1' with 'C_1'
 Matching kinds for MM_RADIUS :: 'C_1' with 'CD'
 Matching kinds for MM_RADIUS :: 'C_1' with 'H_1'
 Matching kinds for MM_RADIUS :: 'C_1' with 'O_1'
 Matching kinds for MM_RADIUS :: 'C_1' with 'SE'
 Matching kinds for MM_RADIUS :: 'H_1' with 'C_1'
 Matching kinds for MM_RADIUS :: 'H_1' with 'CD'
 Matching kinds for MM_RADIUS :: 'H_1' with 'H_1'
 Matching kinds for MM_RADIUS :: 'H_1' with 'O_1'
 Matching kinds for MM_RADIUS :: 'H_1' with 'SE'
 Matching kinds for MM_RADIUS :: 'O_1' with 'C_1'
 Matching kinds for MM_RADIUS :: 'O_1' with 'CD'
 Matching kinds for MM_RADIUS :: 'O_1' with 'H_1'
 Matching kinds for MM_RADIUS :: 'O_1' with 'O_1'
 Matching kinds for MM_RADIUS :: 'O_1' with 'SE'
 Total number of particles with a shell ::            0

 FORCEFIELD| WARNING: A non Critical ForceField parameter is missing! CP2K GOES!
 FORCEFIELD| Non critical parameters are:Urey-Bradley,Torsions,Impropers, Opbends and 1-4
 FORCEFIELD| All missing parameters will not contribute to the potential energy!

 FORCEFIELD| Missing Spline_Bond_Env   (  CD,  CD)                              
                                                                                
                                                                                
                                                                                
                                                                                
                                                                                
                                                                                
                                                                                
                                                                                

 SPLINE_INFO| Generating 15 splines for NONBONDED14 interactions 
              Due to 5 different atomic kinds
  ...1  ...2  ...3  ...4  ...5  ...6  ...7  ...8  ...9  ...10  ...11
  ...12  ...13  ...14  ...15
 SPLINE_INFO| Number of unique splines computed:            7
 SPLINE_INFO| Done
     TESTING CDCD with CDCD
     FOUND CD CD
     TESTING CDCD with SESE
     TESTING CDCD with CDSE
     TESTING CDCD with CDO_1
     TESTING CDCD with SEO_1
     TESTING CDSE with CDCD
     TESTING CDSE with SESE
     TESTING CDSE with CDSE
     FOUND CD SE
     TESTING CDSE with CDO_1
     TESTING CDSE with SEO_1
     TESTING CDC_1 with CDCD
     TESTING CDC_1 with SESE
     TESTING CDC_1 with CDSE
     TESTING CDC_1 with CDO_1
     TESTING CDC_1 with SEO_1
     TESTING CDH_1 with CDCD
     TESTING CDH_1 with SESE
     TESTING CDH_1 with CDSE
     TESTING CDH_1 with CDO_1
     TESTING CDH_1 with SEO_1
     TESTING CDO_1 with CDCD
     TESTING CDO_1 with SESE
     TESTING CDO_1 with CDSE
     TESTING CDO_1 with CDO_1
     FOUND CD O_1
     TESTING CDO_1 with SEO_1
     TESTING SESE with CDCD
     TESTING SESE with SESE
     FOUND SE SE
     TESTING SESE with CDSE
     TESTING SESE with CDO_1
     TESTING SESE with SEO_1
     TESTING SEC_1 with CDCD
     TESTING SEC_1 with SESE
     TESTING SEC_1 with CDSE
     TESTING SEC_1 with CDO_1
     TESTING SEC_1 with SEO_1
     TESTING SEH_1 with CDCD
     TESTING SEH_1 with SESE
     TESTING SEH_1 with CDSE
     TESTING SEH_1 with CDO_1
     TESTING SEH_1 with SEO_1
     TESTING SEO_1 with CDCD
     TESTING SEO_1 with SESE
     TESTING SEO_1 with CDSE
     TESTING SEO_1 with CDO_1
     TESTING SEO_1 with SEO_1
     FOUND SE O_1
     TESTING C_1C_1 with CDCD
     TESTING C_1C_1 with SESE
     TESTING C_1C_1 with CDSE
     TESTING C_1C_1 with CDO_1
     TESTING C_1C_1 with SEO_1
     TESTING C_1H_1 with CDCD
     TESTING C_1H_1 with SESE
     TESTING C_1H_1 with CDSE
     TESTING C_1H_1 with CDO_1
     TESTING C_1H_1 with SEO_1
     TESTING C_1O_1 with CDCD
     TESTING C_1O_1 with SESE
     TESTING C_1O_1 with CDSE
     TESTING C_1O_1 with CDO_1
     TESTING C_1O_1 with SEO_1
     TESTING H_1H_1 with CDCD
     TESTING H_1H_1 with SESE
     TESTING H_1H_1 with CDSE
     TESTING H_1H_1 with CDO_1
     TESTING H_1H_1 with SEO_1
     TESTING H_1O_1 with CDCD
     TESTING H_1O_1 with SESE
     TESTING H_1O_1 with CDSE
     TESTING H_1O_1 with CDO_1
     TESTING H_1O_1 with SEO_1
     TESTING O_1O_1 with CDCD
     TESTING O_1O_1 with SESE
     TESTING O_1O_1 with CDSE
     TESTING O_1O_1 with CDO_1
     TESTING O_1O_1 with SEO_1

 FORCEFIELD| WARNING: A non Critical ForceField parameter is missing! CP2K GOES!
 FORCEFIELD| Non critical parameters are:Urey-Bradley,Torsions,Impropers, Opbends and 1-4
 FORCEFIELD| All missing parameters will not contribute to the potential energy!

 FORCEFIELD| Missing Spline_Non_Bond_En(  CD, C_1)                              
                                                                                
                                                                                
                                                                                

 FORCEFIELD| WARNING: Ignoring missing critical FF parameters! CP2K GOES!
 FORCEFIELD| Critical parameters are: Bonds, Bends and Charges
 FORCEFIELD| All missing parameters will not contribute to the potential energy!

 SPLINE_INFO| Generating 15 splines for NONBONDED interactions 
              Due to 5 different atomic kinds
  ...1  ...2  ...3  ...4  ...5  ...6  ...7  ...8  ...9  ...10  ...11
  ...12  ...13  ...14  ...15
 SPLINE_INFO| Number of unique splines computed:            12
 SPLINE_INFO| Done
       atom            1  Cd charge =    1.5000000000000000     
     Mol Kind MOL1 charge =    1.5000000000000000     
       atom            1  Se charge =   -1.5000000000000000     
     Mol Kind MOL2 charge =   -1.5000000000000000     
       atom            1  C_1 charge =   0.45240000000000002     
       atom            2  H_1 charge =    0.0000000000000000     
       atom            3  O_1 charge =  -0.36595365384615386     
       atom            4  O_1 charge =  -0.36595365384615386     
     Mol Kind MOL3 charge =  -0.27950730769230769     
       atom            1  Cd charge =    1.5000000000000000     
       atom            2  Cd charge =    1.5000000000000000     
       atom            3  Cd charge =    1.5000000000000000     
       atom            4  Cd charge =    1.5000000000000000     
       atom            5  Cd charge =    1.5000000000000000     
       atom            6  Cd charge =    1.5000000000000000     
       atom            7  Cd charge =    1.5000000000000000     
       atom            8  Cd charge =    1.5000000000000000     
       atom            9  Cd charge =    1.5000000000000000     
       atom           10  Cd charge =    1.5000000000000000     
       atom           11  Cd charge =    1.5000000000000000     
       atom           12  Cd charge =    1.5000000000000000     
       atom           13  Cd charge =    1.5000000000000000     
       atom           14  Cd charge =    1.5000000000000000     
       atom           15  Cd charge =    1.5000000000000000     
       atom           16  Cd charge =    1.5000000000000000     
       atom           17  Cd charge =    1.5000000000000000     
       atom           18  Cd charge =    1.5000000000000000     
       atom           19  Cd charge =    1.5000000000000000     
       atom           20  Cd charge =    1.5000000000000000     
       atom           21  Cd charge =    1.5000000000000000     
       atom           22  Cd charge =    1.5000000000000000     
       atom           23  Cd charge =    1.5000000000000000     
       atom           24  Cd charge =    1.5000000000000000     
       atom           25  Cd charge =    1.5000000000000000     
       atom           26  Cd charge =    1.5000000000000000     
       atom           27  Cd charge =    1.5000000000000000     
       atom           28  Cd charge =    1.5000000000000000     
       atom           29  Cd charge =    1.5000000000000000     
       atom           30  Cd charge =    1.5000000000000000     
       atom           31  Cd charge =    1.5000000000000000     
       atom           32  Cd charge =    1.5000000000000000     
       atom           33  Cd charge =    1.5000000000000000     
       atom           34  Cd charge =    1.5000000000000000     
       atom           35  Cd charge =    1.5000000000000000     
       atom           36  Cd charge =    1.5000000000000000     
       atom           37  Cd charge =    1.5000000000000000     
       atom           38  Cd charge =    1.5000000000000000     
       atom           39  Cd charge =    1.5000000000000000     
       atom           40  Cd charge =    1.5000000000000000     
       atom           41  Cd charge =    1.5000000000000000     
       atom           42  Cd charge =    1.5000000000000000     
       atom           43  Cd charge =    1.5000000000000000     
       atom           44  Cd charge =    1.5000000000000000     
       atom           45  Cd charge =    1.5000000000000000     
       atom           46  Cd charge =    1.5000000000000000     
       atom           47  Cd charge =    1.5000000000000000     
       atom           48  Cd charge =    1.5000000000000000     
       atom           49  Cd charge =    1.5000000000000000     
       atom           50  Cd charge =    1.5000000000000000     
       atom           51  Cd charge =    1.5000000000000000     
       atom           52  Cd charge =    1.5000000000000000     
       atom           53  Cd charge =    1.5000000000000000     
       atom           54  Cd charge =    1.5000000000000000     
       atom           55  Cd charge =    1.5000000000000000     
       atom           56  Cd charge =    1.5000000000000000     
       atom           57  Cd charge =    1.5000000000000000     
       atom           58  Cd charge =    1.5000000000000000     
       atom           59  Cd charge =    1.5000000000000000     
       atom           60  Cd charge =    1.5000000000000000     
       atom           61  Cd charge =    1.5000000000000000     
       atom           62  Cd charge =    1.5000000000000000     
       atom           63  Cd charge =    1.5000000000000000     
       atom           64  Cd charge =    1.5000000000000000     
       atom           65  Cd charge =    1.5000000000000000     
       atom           66  Cd charge =    1.5000000000000000     
       atom           67  Cd charge =    1.5000000000000000     
       atom           68  Cd charge =    1.5000000000000000     
       atom           69  Se charge =   -1.5000000000000000     
       atom           70  Se charge =   -1.5000000000000000     
       atom           71  Se charge =   -1.5000000000000000     
       atom           72  Se charge =   -1.5000000000000000     
       atom           73  Se charge =   -1.5000000000000000     
       atom           74  Se charge =   -1.5000000000000000     
       atom           75  Se charge =   -1.5000000000000000     
       atom           76  Se charge =   -1.5000000000000000     
       atom           77  Se charge =   -1.5000000000000000     
       atom           78  Se charge =   -1.5000000000000000     
       atom           79  Se charge =   -1.5000000000000000     
       atom           80  Se charge =   -1.5000000000000000     
       atom           81  Se charge =   -1.5000000000000000     
       atom           82  Se charge =   -1.5000000000000000     
       atom           83  Se charge =   -1.5000000000000000     
       atom           84  Se charge =   -1.5000000000000000     
       atom           85  Se charge =   -1.5000000000000000     
       atom           86  Se charge =   -1.5000000000000000     
       atom           87  Se charge =   -1.5000000000000000     
       atom           88  Se charge =   -1.5000000000000000     
       atom           89  Se charge =   -1.5000000000000000     
       atom           90  Se charge =   -1.5000000000000000     
       atom           91  Se charge =   -1.5000000000000000     
       atom           92  Se charge =   -1.5000000000000000     
       atom           93  Se charge =   -1.5000000000000000     
       atom           94  Se charge =   -1.5000000000000000     
       atom           95  Se charge =   -1.5000000000000000     
       atom           96  Se charge =   -1.5000000000000000     
       atom           97  Se charge =   -1.5000000000000000     
       atom           98  Se charge =   -1.5000000000000000     
       atom           99  Se charge =   -1.5000000000000000     
       atom          100  Se charge =   -1.5000000000000000     
       atom          101  Se charge =   -1.5000000000000000     
       atom          102  Se charge =   -1.5000000000000000     
       atom          103  Se charge =   -1.5000000000000000     
       atom          104  Se charge =   -1.5000000000000000     
       atom          105  Se charge =   -1.5000000000000000     
       atom          106  Se charge =   -1.5000000000000000     
       atom          107  Se charge =   -1.5000000000000000     
       atom          108  Se charge =   -1.5000000000000000     
       atom          109  Se charge =   -1.5000000000000000     
       atom          110  Se charge =   -1.5000000000000000     
       atom          111  Se charge =   -1.5000000000000000     
       atom          112  Se charge =   -1.5000000000000000     
       atom          113  Se charge =   -1.5000000000000000     
       atom          114  Se charge =   -1.5000000000000000     
       atom          115  Se charge =   -1.5000000000000000     
       atom          116  Se charge =   -1.5000000000000000     
       atom          117  Se charge =   -1.5000000000000000     
       atom          118  Se charge =   -1.5000000000000000     
       atom          119  Se charge =   -1.5000000000000000     
       atom          120  Se charge =   -1.5000000000000000     
       atom          121  Se charge =   -1.5000000000000000     
       atom          122  Se charge =   -1.5000000000000000     
       atom          123  Se charge =   -1.5000000000000000     
       atom          124  C_1 charge =   0.45240000000000002     
       atom          125  H_1 charge =    0.0000000000000000     
       atom          126  O_1 charge =  -0.36595365384615386     
       atom          127  O_1 charge =  -0.36595365384615386     
       atom          128  C_1 charge =   0.45240000000000002     
       atom          129  H_1 charge =    0.0000000000000000     
       atom          130  O_1 charge =  -0.36595365384615386     
       atom          131  O_1 charge =  -0.36595365384615386     
       atom          132  C_1 charge =   0.45240000000000002     
       atom          133  H_1 charge =    0.0000000000000000     
       atom          134  O_1 charge =  -0.36595365384615386     
       atom          135  O_1 charge =  -0.36595365384615386     
       atom          136  C_1 charge =   0.45240000000000002     
       atom          137  H_1 charge =    0.0000000000000000     
       atom          138  O_1 charge =  -0.36595365384615386     
       atom          139  O_1 charge =  -0.36595365384615386     
       atom          140  C_1 charge =   0.45240000000000002     
       atom          141  H_1 charge =    0.0000000000000000     
       atom          142  O_1 charge =  -0.36595365384615386     
       atom          143  O_1 charge =  -0.36595365384615386     
       atom          144  C_1 charge =   0.45240000000000002     
       atom          145  H_1 charge =    0.0000000000000000     
       atom          146  O_1 charge =  -0.36595365384615386     
       atom          147  O_1 charge =  -0.36595365384615386     
       atom          148  C_1 charge =   0.45240000000000002     
       atom          149  H_1 charge =    0.0000000000000000     
       atom          150  O_1 charge =  -0.36595365384615386     
       atom          151  O_1 charge =  -0.36595365384615386     
       atom          152  C_1 charge =   0.45240000000000002     
       atom          153  H_1 charge =    0.0000000000000000     
       atom          154  O_1 charge =  -0.36595365384615386     
       atom          155  O_1 charge =  -0.36595365384615386     
       atom          156  C_1 charge =   0.45240000000000002     
       atom          157  H_1 charge =    0.0000000000000000     
       atom          158  O_1 charge =  -0.36595365384615386     
       atom          159  O_1 charge =  -0.36595365384615386     
       atom          160  C_1 charge =   0.45240000000000002     
       atom          161  H_1 charge =    0.0000000000000000     
       atom          162  O_1 charge =  -0.36595365384615386     
       atom          163  O_1 charge =  -0.36595365384615386     
       atom          164  C_1 charge =   0.45240000000000002     
       atom          165  H_1 charge =    0.0000000000000000     
       atom          166  O_1 charge =  -0.36595365384615386     
       atom          167  O_1 charge =  -0.36595365384615386     
       atom          168  C_1 charge =   0.45240000000000002     
       atom          169  H_1 charge =    0.0000000000000000     
       atom          170  O_1 charge =  -0.36595365384615386     
       atom          171  O_1 charge =  -0.36595365384615386     
       atom          172  C_1 charge =   0.45240000000000002     
       atom          173  H_1 charge =    0.0000000000000000     
       atom          174  O_1 charge =  -0.36595365384615386     
       atom          175  O_1 charge =  -0.36595365384615386     
       atom          176  C_1 charge =   0.45240000000000002     
       atom          177  H_1 charge =    0.0000000000000000     
       atom          178  O_1 charge =  -0.36595365384615386     
       atom          179  O_1 charge =  -0.36595365384615386     
       atom          180  C_1 charge =   0.45240000000000002     
       atom          181  H_1 charge =    0.0000000000000000     
       atom          182  O_1 charge =  -0.36595365384615386     
       atom          183  O_1 charge =  -0.36595365384615386     
       atom          184  C_1 charge =   0.45240000000000002     
       atom          185  H_1 charge =    0.0000000000000000     
       atom          186  O_1 charge =  -0.36595365384615386     
       atom          187  O_1 charge =  -0.36595365384615386     
       atom          188  C_1 charge =   0.45240000000000002     
       atom          189  H_1 charge =    0.0000000000000000     
       atom          190  O_1 charge =  -0.36595365384615386     
       atom          191  O_1 charge =  -0.36595365384615386     
       atom          192  C_1 charge =   0.45240000000000002     
       atom          193  H_1 charge =    0.0000000000000000     
       atom          194  O_1 charge =  -0.36595365384615386     
       atom          195  O_1 charge =  -0.36595365384615386     
       atom          196  C_1 charge =   0.45240000000000002     
       atom          197  H_1 charge =    0.0000000000000000     
       atom          198  O_1 charge =  -0.36595365384615386     
       atom          199  O_1 charge =  -0.36595365384615386     
       atom          200  C_1 charge =   0.45240000000000002     
       atom          201  H_1 charge =    0.0000000000000000     
       atom          202  O_1 charge =  -0.36595365384615386     
       atom          203  O_1 charge =  -0.36595365384615386     
       atom          204  C_1 charge =   0.45240000000000002     
       atom          205  H_1 charge =    0.0000000000000000     
       atom          206  O_1 charge =  -0.36595365384615386     
       atom          207  O_1 charge =  -0.36595365384615386     
       atom          208  C_1 charge =   0.45240000000000002     
       atom          209  H_1 charge =    0.0000000000000000     
       atom          210  O_1 charge =  -0.36595365384615386     
       atom          211  O_1 charge =  -0.36595365384615386     
       atom          212  C_1 charge =   0.45240000000000002     
       atom          213  H_1 charge =    0.0000000000000000     
       atom          214  O_1 charge =  -0.36595365384615386     
       atom          215  O_1 charge =  -0.36595365384615386     
       atom          216  C_1 charge =   0.45240000000000002     
       atom          217  H_1 charge =    0.0000000000000000     
       atom          218  O_1 charge =  -0.36595365384615386     
       atom          219  O_1 charge =  -0.36595365384615386     
       atom          220  C_1 charge =   0.45240000000000002     
       atom          221  H_1 charge =    0.0000000000000000     
       atom          222  O_1 charge =  -0.36595365384615386     
       atom          223  O_1 charge =  -0.36595365384615386     
       atom          224  C_1 charge =   0.45240000000000002     
       atom          225  H_1 charge =    0.0000000000000000     
       atom          226  O_1 charge =  -0.36595365384615386     
       atom          227  O_1 charge =  -0.36595365384615386     
    Total system charge =        12.2328100000
    Total system mass   =  23985470.0628633164
     Mol(           3 ) Old BOND Count:            3           2
     1     2
     3     1
     4     1
     Mol(           3 ) Old BEND Count:            3           2
     3     1     4
     3     1     2
     4     1     2
     Mol(           3 ) Old UB Count:            3           2
     3     1     4
     3     1     2
     4     1     2
     Mol(           3 ) New UB Count:            1           1
     3     1     4
     Mol(           3 ) Old IMPROPER Count:            1           1
     Mol(           3 ) New IMPROPER Count:            0           0
     Mol(           3 ) Old OPBEND Count:            1           1
     Mol(           3 ) New OPBEND Count:            0           0

 MD| Molecular Dynamics Protocol 
 MD| Ensemble Type                                                           NVT
 MD| Number of Time Steps                                                    100
 MD| Time Step [fs]                                                         1.00
 MD| Temperature [K]                                                      300.00
 MD| Temperature tolerance [K]                                              0.00
 MD| Print MD information every                                        1 step(s)
 MD| File type     Print frequency[steps]                             File names
 MD| Coordinates            1                                     cp2k-pos-1.xyz
 MD| Velocities             1                                     cp2k-vel-1.xyz
 MD| Energies               1                                        cp2k-1.ener
 MD| Dump                  20                                     cp2k-1.restart

 ROT| Rotational Analysis Info 
 ROT| Principal axes and moments of inertia in atomic units:
 ROT|                                1                 2                 3
 ROT| EIGENVALUES            0.326220554E+10   0.336484857E+10   0.341428896E+10
 ROT|      X                     0.889329186       0.047517002      -0.454791967
 ROT|      Y                     0.005946844       0.993300189       0.115409577
 ROT|      Z                    -0.457228864       0.105341682      -0.883088272
 ROT| Numer of Rotovibrational vectors:     6

 Calculation of degrees of freedom
                                                      Number of atoms:       227
                                 Number of Intramolecular constraints:         0
                                 Number of Intermolecular constraints:         0
                                  Invariants(translation + rotations):         6
                                                   Degrees of freedom:       675


 Restraints Information
                                  Number of Intramolecular restraints:         0
                                  Number of Intermolecular restraints:         0

 THERMOSTAT| Thermostat Info for PARTICLES
 THERMOSTAT| Type of thermostat            Canonical Sampling/Velocity Rescaling
 THERMOSTAT| CSVR time constant [  fs]                                   1250.00
 THERMOSTAT| Initial Kinetic Energy                                     0.000000
 THERMOSTAT| End of Thermostat Info for PARTICLES

 ************************** Velocities initialization **************************
 Initial Temperature                                                    300.00 K
 COM velocity:            0.000000000000      0.000000000000      0.000000000000
 COM position:            0.162577692601     -0.338774148860      0.870870578750
 Angular velocity:       -0.000000097478      0.000000085085      0.000000505351
 *******************************************************************************


 ENERGY| Total FORCE_EVAL ( FIST ) energy (a.u.):              0.783407491105079


 MD_ENERGIES| Initialization proceeding


 ******************************** GO CP2K GO! **********************************
 INITIAL POTENTIAL ENERGY[hartree]     =                      0.783407491105E+00
 INITIAL KINETIC ENERGY[hartree]       =                      0.320640053508E+00
 INITIAL TEMPERATURE[K]                =                                 300.000
 INITIAL VOLUME[bohr^3]                =                      0.843541822886E+06
 INITIAL CELL LNTHS[bohr]   =      0.9448631E+02   0.9448631E+02   0.9448631E+02
 INITIAL CELL ANGLS[deg]    =      0.9000000E+02   0.9000000E+02   0.9000000E+02
 ******************************** GO CP2K GO! **********************************

 ENERGY| Total FORCE_EVAL ( FIST ) energy (a.u.):              0.559402931070599


 *******************************************************************************
 ENSEMBLE TYPE                =                                              NVT
 STEP NUMBER                  =                                                1
 TIME [fs]                    =                                         1.000000
 CONSERVED QUANTITY [hartree] =                               0.110180069217E+01

                                              INSTANTANEOUS             AVERAGES
 CPU TIME [s]                 =                        0.36                 0.36
 ENERGY DRIFT PER ATOM [K]    =         -0.312554642930E+01   0.000000000000E+00
 POTENTIAL ENERGY[hartree]    =          0.559402931071E+00   0.559402931071E+00
 KINETIC ENERGY [hartree]     =          0.541982715519E+00   0.541982715519E+00
 TEMPERATURE [K]              =                     507.095              507.095
 *******************************************************************************


 ENERGY| Total FORCE_EVAL ( FIST ) energy (a.u.):             -0.076671433372296


 *******************************************************************************
 ENSEMBLE TYPE                =                                              NVT
 STEP NUMBER                  =                                                2
 TIME [fs]                    =                                         2.000000
 CONSERVED QUANTITY [hartree] =                               0.109593172518E+01

                                              INSTANTANEOUS             AVERAGES
 CPU TIME [s]                 =                        0.03                 0.19
 ENERGY DRIFT PER ATOM [K]    =         -0.112897357890E+02  -0.564486789449E+01
 POTENTIAL ENERGY[hartree]    =         -0.766714333723E-01   0.241365748849E+00
 KINETIC ENERGY [hartree]     =          0.117058464993E+01   0.856283682727E+00
 TEMPERATURE [K]              =                    1095.232              801.163
 *******************************************************************************


 ENERGY| Total FORCE_EVAL ( FIST ) energy (a.u.):             -1.031730765312599


 *******************************************************************************
 ENSEMBLE TYPE                =                                              NVT
 STEP NUMBER                  =                                                3
 TIME [fs]                    =                                         3.000000
 CONSERVED QUANTITY [hartree] =                               0.108850411927E+01

                                              INSTANTANEOUS             AVERAGES
 CPU TIME [s]                 =                        0.03                 0.14
 ENERGY DRIFT PER ATOM [K]    =         -0.216221130618E+02  -0.109706162836E+02
 POTENTIAL ENERGY[hartree]    =         -0.103173076531E+01  -0.182999755871E+00
 KINETIC ENERGY [hartree]     =          0.211702124842E+01   0.127652953796E+01
 TEMPERATURE [K]              =                    1980.746             1194.358
 *******************************************************************************


 ENERGY| Total FORCE_EVAL ( FIST ) energy (a.u.):             -2.189057637436717


 *******************************************************************************
 ENSEMBLE TYPE                =                                              NVT
 STEP NUMBER                  =                                                4
 TIME [fs]                    =                                         4.000000
 CONSERVED QUANTITY [hartree] =                               0.108164506252E+01

                                              INSTANTANEOUS             AVERAGES
 CPU TIME [s]                 =                        0.03                 0.11
 ENERGY DRIFT PER ATOM [K]    =         -0.311635942515E+02  -0.160188607756E+02
 POTENTIAL ENERGY[hartree]    =         -0.218905763744E+01  -0.684514226263E+00
 KINETIC ENERGY [hartree]     =          0.326834736439E+01   0.177448399457E+01
 TEMPERATURE [K]              =                    3057.959             1660.258
 *******************************************************************************


 ENERGY| Total FORCE_EVAL ( FIST ) energy (a.u.):             -3.435138885801019


 *******************************************************************************
 ENSEMBLE TYPE                =                                              NVT
 STEP NUMBER                  =                                                5
 TIME [fs]                    =                                         5.000000
 CONSERVED QUANTITY [hartree] =                               0.107647740885E+01

                                              INSTANTANEOUS             AVERAGES
 CPU TIME [s]                 =                        0.03                 0.09
 ENERGY DRIFT PER ATOM [K]    =         -0.383522022625E+02  -0.204855290730E+02
 POTENTIAL ENERGY[hartree]    =         -0.343513888580E+01  -0.123463915817E+01
 KINETIC ENERGY [hartree]     =          0.450483687222E+01   0.232055457010E+01
 TEMPERATURE [K]              =                    4214.854             2171.177
 *******************************************************************************


 ENERGY| Total FORCE_EVAL ( FIST ) energy (a.u.):             -4.680117560894933


 *******************************************************************************
 ENSEMBLE TYPE                =                                              NVT
 STEP NUMBER                  =                                                6
 TIME [fs]                    =                                         6.000000
 CONSERVED QUANTITY [hartree] =                               0.107289828041E+01

                                              INSTANTANEOUS             AVERAGES
 CPU TIME [s]                 =                        0.03                 0.08
 ENERGY DRIFT PER ATOM [K]    =         -0.433310481709E+02  -0.242931155893E+02
 POTENTIAL ENERGY[hartree]    =         -0.468011756089E+01  -0.180888555862E+01
 KINETIC ENERGY [hartree]     =          0.574576842166E+01   0.289142354536E+01
 TEMPERATURE [K]              =                    5375.905             2705.299
 *******************************************************************************


 ENERGY| Total FORCE_EVAL ( FIST ) energy (a.u.):             -5.859662800294680


 *******************************************************************************
 ENSEMBLE TYPE                =                                              NVT
 STEP NUMBER                  =                                                7
 TIME [fs]                    =                                         7.000000
 CONSERVED QUANTITY [hartree] =                               0.107114243961E+01

                                              INSTANTANEOUS             AVERAGES
 CPU TIME [s]                 =                        0.03                 0.07
 ENERGY DRIFT PER ATOM [K]    =         -0.457735592336E+02  -0.273617503956E+02
 POTENTIAL ENERGY[hartree]    =         -0.585966280029E+01  -0.238756802172E+01
 KINETIC ENERGY [hartree]     =          0.691803013978E+01   0.346665305885E+01
 TEMPERATURE [K]              =                    6472.707             3243.500
 *******************************************************************************


 ENERGY| Total FORCE_EVAL ( FIST ) energy (a.u.):             -6.932693539826124


 *******************************************************************************
 ENSEMBLE TYPE                =                                              NVT
 STEP NUMBER                  =                                                8
 TIME [fs]                    =                                         8.000000
 CONSERVED QUANTITY [hartree] =                               0.106989256834E+01

                                              INSTANTANEOUS             AVERAGES
 CPU TIME [s]                 =                        0.03                 0.07
 ENERGY DRIFT PER ATOM [K]    =         -0.475122273478E+02  -0.298805600146E+02
 POTENTIAL ENERGY[hartree]    =         -0.693269353983E+01  -0.295570871148E+01
 KINETIC ENERGY [hartree]     =          0.798240712524E+01   0.403112231715E+01
 TEMPERATURE [K]              =                    7468.568             3771.633
 *******************************************************************************


 ENERGY| Total FORCE_EVAL ( FIST ) energy (a.u.):             -7.873163280107906


 *******************************************************************************
 ENSEMBLE TYPE                =                                              NVT
 STEP NUMBER                  =                                                9
 TIME [fs]                    =                                         9.000000
 CONSERVED QUANTITY [hartree] =                               0.107022389695E+01

                                              INSTANTANEOUS             AVERAGES
 CPU TIME [s]                 =                        0.06                 0.07
 ENERGY DRIFT PER ATOM [K]    =         -0.470513234873E+02  -0.317884226227E+02
 POTENTIAL ENERGY[hartree]    =         -0.787316328011E+01  -0.350209255244E+01
 KINETIC ENERGY [hartree]     =          0.891682685749E+01   0.457397837718E+01
 TEMPERATURE [K]              =                    8342.838             4279.545
 *******************************************************************************


 ENERGY| Total FORCE_EVAL ( FIST ) energy (a.u.):             -8.674333393194159


 *******************************************************************************
 ENSEMBLE TYPE                =                                              NVT
 STEP NUMBER                  =                                               10
 TIME [fs]                    =                                        10.000000
 CONSERVED QUANTITY [hartree] =                               0.107131908294E+01

                                              INSTANTANEOUS             AVERAGES
 CPU TIME [s]                 =                        0.03                 0.06
 ENERGY DRIFT PER ATOM [K]    =         -0.455278346352E+02  -0.331623638240E+02
 POTENTIAL ENERGY[hartree]    =         -0.867433339319E+01  -0.401931663652E+01
 KINETIC ENERGY [hartree]     =          0.971072482189E+01   0.508765302165E+01
 TEMPERATURE [K]              =                    9085.632             4760.154
 *******************************************************************************


 ENERGY| Total FORCE_EVAL ( FIST ) energy (a.u.):             -9.346323146191800


 *******************************************************************************
 ENSEMBLE TYPE                =                                              NVT
 STEP NUMBER                  =                                               11
 TIME [fs]                    =                                        11.000000
 CONSERVED QUANTITY [hartree] =                               0.107306122729E+01

                                              INSTANTANEOUS             AVERAGES
 CPU TIME [s]                 =                        0.03                 0.06
 ENERGY DRIFT PER ATOM [K]    =         -0.431043763916E+02  -0.340661831483E+02
 POTENTIAL ENERGY[hartree]    =         -0.934632314619E+01  -0.450358995558E+01
 KINETIC ENERGY [hartree]     =          0.103763946027E+02   0.556844771084E+01
 TEMPERATURE [K]              =                    9708.451             5209.999
 *******************************************************************************


 ENERGY| Total FORCE_EVAL ( FIST ) energy (a.u.):             -9.912615610627412


 *******************************************************************************
 ENSEMBLE TYPE                =                                              NVT
 STEP NUMBER                  =                                               12
 TIME [fs]                    =                                        12.000000
 CONSERVED QUANTITY [hartree] =                               0.107571531367E+01

                                              INSTANTANEOUS             AVERAGES
 CPU TIME [s]                 =                        0.03                 0.06
 ENERGY DRIFT PER ATOM [K]    =         -0.394123359008E+02  -0.345116958777E+02
 POTENTIAL ENERGY[hartree]    =         -0.991261561063E+01  -0.495434209350E+01
 KINETIC ENERGY [hartree]     =          0.109367249627E+02   0.601580414850E+01
 TEMPERATURE [K]              =                   10232.713             5628.558
 *******************************************************************************


 ENERGY| Total FORCE_EVAL ( FIST ) energy (a.u.):            -10.405218826926463


 *******************************************************************************
 ENSEMBLE TYPE                =                                              NVT
 STEP NUMBER                  =                                               13
 TIME [fs]                    =                                        13.000000
 CONSERVED QUANTITY [hartree] =                               0.107723320507E+01

                                              INSTANTANEOUS             AVERAGES
 CPU TIME [s]                 =                        0.03                 0.06
 ENERGY DRIFT PER ATOM [K]    =         -0.373008309568E+02  -0.347262447299E+02
 POTENTIAL ENERGY[hartree]    =         -0.104052188269E+02  -0.537364030376E+01
 KINETIC ENERGY [hartree]     =          0.114158319595E+02   0.643119090319E+01
 TEMPERATURE [K]              =                   10680.979             6017.206
 *******************************************************************************


 ENERGY| Total FORCE_EVAL ( FIST ) energy (a.u.):            -10.849031405763325


 *******************************************************************************
 ENSEMBLE TYPE                =                                              NVT
 STEP NUMBER                  =                                               14
 TIME [fs]                    =                                        14.000000
 CONSERVED QUANTITY [hartree] =                               0.107849123177E+01

                                              INSTANTANEOUS             AVERAGES
 CPU TIME [s]                 =                        0.03                 0.05
 ENERGY DRIFT PER ATOM [K]    =         -0.355508180152E+02  -0.347851428217E+02
 POTENTIAL ENERGY[hartree]    =         -0.108490314058E+02  -0.576473966819E+01
 KINETIC ENERGY [hartree]     =          0.118499157227E+02   0.681824267601E+01
 TEMPERATURE [K]              =                   11087.120             6379.343
 *******************************************************************************


 ENERGY| Total FORCE_EVAL ( FIST ) energy (a.u.):            -11.259273486139991


 *******************************************************************************
 ENSEMBLE TYPE                =                                              NVT
 STEP NUMBER                  =                                               15
 TIME [fs]                    =                                        15.000000
 CONSERVED QUANTITY [hartree] =                               0.107868421309E+01

                                              INSTANTANEOUS             AVERAGES
 CPU TIME [s]                 =                        0.28                 0.07
 ENERGY DRIFT PER ATOM [K]    =         -0.352823659915E+02  -0.348182910330E+02
 POTENTIAL ENERGY[hartree]    =         -0.112592734861E+02  -0.613104192272E+01
 KINETIC ENERGY [hartree]     =          0.122566319809E+02   0.718080196301E+01
 TEMPERATURE [K]              =                   11467.655             6718.564
 *******************************************************************************


 ENERGY| Total FORCE_EVAL ( FIST ) energy (a.u.):            -11.643245512316703


 *******************************************************************************
 ENSEMBLE TYPE                =                                              NVT
 STEP NUMBER                  =                                               16
 TIME [fs]                    =                                        16.000000
 CONSERVED QUANTITY [hartree] =                               0.108006239920E+01

                                              INSTANTANEOUS             AVERAGES
 CPU TIME [s]                 =                        0.03                 0.07
 ENERGY DRIFT PER ATOM [K]    =         -0.333652019781E+02  -0.347274729671E+02
 POTENTIAL ENERGY[hartree]    =         -0.116432455123E+02  -0.647555464707E+01
 KINETIC ENERGY [hartree]     =          0.126361299958E+02   0.752175996506E+01
 TEMPERATURE [K]              =                   11822.724             7037.574
 *******************************************************************************


 ENERGY| Total FORCE_EVAL ( FIST ) energy (a.u.):            -12.012777223031179


 *******************************************************************************
 ENSEMBLE TYPE                =                                              NVT
 STEP NUMBER                  =                                               17
 TIME [fs]                    =                                        17.000000
 CONSERVED QUANTITY [hartree] =                               0.108110477694E+01

                                              INSTANTANEOUS             AVERAGES
 CPU TIME [s]                 =                        0.03                 0.06
 ENERGY DRIFT PER ATOM [K]    =         -0.319151734907E+02  -0.345620435861E+02
 POTENTIAL ENERGY[hartree]    =         -0.120127772230E+02  -0.680127362213E+01
 KINETIC ENERGY [hartree]     =          0.129906422233E+02   0.784345892143E+01
 TEMPERATURE [K]              =                   12154.416             7338.564
 *******************************************************************************


 ENERGY| Total FORCE_EVAL ( FIST ) energy (a.u.):            -12.384727217096140


 *******************************************************************************
 ENSEMBLE TYPE                =                                              NVT
 STEP NUMBER                  =                                               18
 TIME [fs]                    =                                        18.000000
 CONSERVED QUANTITY [hartree] =                               0.108258806077E+01

                                              INSTANTANEOUS             AVERAGES
 CPU TIME [s]                 =                        0.03                 0.06
 ENERGY DRIFT PER ATOM [K]    =         -0.298518103740E+02  -0.343003639632E+02
 POTENTIAL ENERGY[hartree]    =         -0.123847272171E+02  -0.711146548851E+01
 KINETIC ENERGY [hartree]     =          0.133497930053E+02   0.814936637053E+01
 TEMPERATURE [K]              =                   12490.448             7624.780
 *******************************************************************************


 ENERGY| Total FORCE_EVAL ( FIST ) energy (a.u.):            -12.780100715568132


 *******************************************************************************
 ENSEMBLE TYPE                =                                              NVT
 STEP NUMBER                  =                                               19
 TIME [fs]                    =                                        19.000000
 CONSERVED QUANTITY [hartree] =                               0.108362001827E+01

                                              INSTANTANEOUS             AVERAGES
 CPU TIME [s]                 =                        0.03                 0.06
 ENERGY DRIFT PER ATOM [K]    =         -0.284162772596E+02  -0.339906751894E+02
 POTENTIAL ENERGY[hartree]    =         -0.127801007156E+02  -0.740981471099E+01
 KINETIC ENERGY [hartree]     =          0.137308158283E+02   0.844312686831E+01
 TEMPERATURE [K]              =                   12846.944             7899.631
 *******************************************************************************


 ENERGY| Total FORCE_EVAL ( FIST ) energy (a.u.):            -13.208677978761045


 *******************************************************************************
 ENSEMBLE TYPE                =                                              NVT
 STEP NUMBER                  =                                               20
 TIME [fs]                    =                                        20.000000
 CONSERVED QUANTITY [hartree] =                               0.108458648101E+01

                                              INSTANTANEOUS             AVERAGES
 CPU TIME [s]                 =                        0.03                 0.06
 ENERGY DRIFT PER ATOM [K]    =         -0.270718524532E+02  -0.336447340526E+02
 POTENTIAL ENERGY[hartree]    =         -0.132086779788E+02  -0.769975787438E+01
 KINETIC ENERGY [hartree]     =          0.141506757185E+02   0.872850431081E+01
 TEMPERATURE [K]              =                   13239.777             8166.638
 *******************************************************************************


 ENERGY| Total FORCE_EVAL ( FIST ) energy (a.u.):            -13.671668534297178


 *******************************************************************************
 ENSEMBLE TYPE                =                                              NVT
 STEP NUMBER                  =                                               21
 TIME [fs]                    =                                        21.000000
 CONSERVED QUANTITY [hartree] =                               0.108376807639E+01

                                              INSTANTANEOUS             AVERAGES
 CPU TIME [s]                 =                        0.05                 0.06
 ENERGY DRIFT PER ATOM [K]    =         -0.282103169070E+02  -0.333859522837E+02
 POTENTIAL ENERGY[hartree]    =         -0.136716685343E+02  -0.798413457247E+01
 KINETIC ENERGY [hartree]     =          0.146058348129E+02   0.900837719186E+01
 TEMPERATURE [K]              =                   13665.637             8428.495
 *******************************************************************************


 ENERGY| Total FORCE_EVAL ( FIST ) energy (a.u.):            -14.158317751870580


 *******************************************************************************
 ENSEMBLE TYPE                =                                              NVT
 STEP NUMBER                  =                                               22
 TIME [fs]                    =                                        22.000000
 CONSERVED QUANTITY [hartree] =                               0.108280236068E+01

                                              INSTANTANEOUS             AVERAGES
 CPU TIME [s]                 =                        0.03                 0.06
 ENERGY DRIFT PER ATOM [K]    =         -0.295537025389E+02  -0.332117591135E+02
 POTENTIAL ENERGY[hartree]    =         -0.141583177519E+02  -0.826477926244E+01
 KINETIC ENERGY [hartree]     =          0.150791144067E+02   0.928431979254E+01
 TEMPERATURE [K]              =                   14108.450             8686.675
 *******************************************************************************


 ENERGY| Total FORCE_EVAL ( FIST ) energy (a.u.):            -14.653999838705571


 *******************************************************************************
 ENSEMBLE TYPE                =                                              NVT
 STEP NUMBER                  =                                               23
 TIME [fs]                    =                                        23.000000
 CONSERVED QUANTITY [hartree] =                               0.108185676435E+01

                                              INSTANTANEOUS             AVERAGES
 CPU TIME [s]                 =                        0.03                 0.06
 ENERGY DRIFT PER ATOM [K]    =         -0.308691005496E+02  -0.331099043933E+02
 POTENTIAL ENERGY[hartree]    =         -0.146539998387E+02  -0.854257146141E+01
 KINETIC ENERGY [hartree]     =          0.155631541219E+02   0.955731258947E+01
 TEMPERATURE [K]              =                   14561.332             8942.095
 *******************************************************************************


 ENERGY| Total FORCE_EVAL ( FIST ) energy (a.u.):            -15.147344314831180


 *******************************************************************************
 ENSEMBLE TYPE                =                                              NVT
 STEP NUMBER                  =                                               24
 TIME [fs]                    =                                        24.000000
 CONSERVED QUANTITY [hartree] =                               0.108159120089E+01

                                              INSTANTANEOUS             AVERAGES
 CPU TIME [s]                 =                        0.03                 0.06
 ENERGY DRIFT PER ATOM [K]    =         -0.312385199604E+02  -0.330319300420E+02
 POTENTIAL ENERGY[hartree]    =         -0.151473443148E+02  -0.881777033030E+01
 KINETIC ENERGY [hartree]     =          0.160466032074E+02   0.982769969855E+01
 TEMPERATURE [K]              =                   15013.661             9195.077
 *******************************************************************************


 ENERGY| Total FORCE_EVAL ( FIST ) energy (a.u.):            -15.635539404843795


 *******************************************************************************
 ENSEMBLE TYPE                =                                              NVT
 STEP NUMBER                  =                                               25
 TIME [fs]                    =                                        25.000000
 CONSERVED QUANTITY [hartree] =                               0.108220335670E+01

                                              INSTANTANEOUS             AVERAGES
 CPU TIME [s]                 =                        0.03                 0.05
 ENERGY DRIFT PER ATOM [K]    =         -0.303869636369E+02  -0.329261313858E+02
 POTENTIAL ENERGY[hartree]    =         -0.156355394048E+02  -0.909048109329E+01
 KINETIC ENERGY [hartree]     =          0.165259256568E+02   0.100956287369E+02
 TEMPERATURE [K]              =                   15462.128             9445.759
 *******************************************************************************


 ENERGY| Total FORCE_EVAL ( FIST ) energy (a.u.):            -16.120784430916899


 *******************************************************************************
 ENSEMBLE TYPE                =                                              NVT
 STEP NUMBER                  =                                               26
 TIME [fs]                    =                                        26.000000
 CONSERVED QUANTITY [hartree] =                               0.108272180846E+01

                                              INSTANTANEOUS             AVERAGES
 CPU TIME [s]                 =                        0.29                 0.06
 ENERGY DRIFT PER ATOM [K]    =         -0.296657569432E+02  -0.328007323687E+02
 POTENTIAL ENERGY[hartree]    =         -0.161207844309E+02  -0.936087737550E+01
 KINETIC ENERGY [hartree]     =          0.169892601315E+02   0.103607684059E+02
 TEMPERATURE [K]              =                   15895.637             9693.831
 *******************************************************************************


 ENERGY| Total FORCE_EVAL ( FIST ) energy (a.u.):            -16.604847719938530


 *******************************************************************************
 ENSEMBLE TYPE                =                                              NVT
 STEP NUMBER                  =                                               27
 TIME [fs]                    =                                        27.000000
 CONSERVED QUANTITY [hartree] =                               0.108212982642E+01

                                              INSTANTANEOUS             AVERAGES
 CPU TIME [s]                 =                        0.03                 0.06
 ENERGY DRIFT PER ATOM [K]    =         -0.304892499734E+02  -0.327151219097E+02
 POTENTIAL ENERGY[hartree]    =         -0.166048477199E+02  -0.962917257344E+01
 KINETIC ENERGY [hartree]     =          0.174658134134E+02   0.106239182210E+02
 TEMPERATURE [K]              =                   16341.514             9940.042
 *******************************************************************************


 ENERGY| Total FORCE_EVAL ( FIST ) energy (a.u.):            -17.081073091776435


 *******************************************************************************
 ENSEMBLE TYPE                =                                              NVT
 STEP NUMBER                  =                                               28
 TIME [fs]                    =                                        28.000000
 CONSERVED QUANTITY [hartree] =                               0.108224718164E+01

                                              INSTANTANEOUS             AVERAGES
 CPU TIME [s]                 =                        0.03                 0.06
 ENERGY DRIFT PER ATOM [K]    =         -0.303259997453E+02  -0.326297961181E+02
 POTENTIAL ENERGY[hartree]    =         -0.170810730918E+02  -0.989531187767E+01
 KINETIC ENERGY [hartree]     =          0.179328728853E+02   0.108849523161E+02
 TEMPERATURE [K]              =                   16778.509            10184.273
 *******************************************************************************


 ENERGY| Total FORCE_EVAL ( FIST ) energy (a.u.):            -17.540668184508881


 *******************************************************************************
 ENSEMBLE TYPE                =                                              NVT
 STEP NUMBER                  =                                               29
 TIME [fs]                    =                                        29.000000
 CONSERVED QUANTITY [hartree] =                               0.108171066557E+01

                                              INSTANTANEOUS             AVERAGES
 CPU TIME [s]                 =                        0.03                 0.06
 ENERGY DRIFT PER ATOM [K]    =         -0.310723353073E+02  -0.325760905729E+02
 POTENTIAL ENERGY[hartree]    =         -0.175406681845E+02  -0.101589448538E+02
 KINETIC ENERGY [hartree]     =          0.183873061215E+02   0.111436541715E+02
 TEMPERATURE [K]              =                   17203.689            10426.321
 *******************************************************************************


 ENERGY| Total FORCE_EVAL ( FIST ) energy (a.u.):            -17.971220127342875


 *******************************************************************************
 ENSEMBLE TYPE                =                                              NVT
 STEP NUMBER                  =                                               30
 TIME [fs]                    =                                        30.000000
 CONSERVED QUANTITY [hartree] =                               0.108216506795E+01

                                              INSTANTANEOUS             AVERAGES
 CPU TIME [s]                 =                        0.04                 0.06
 ENERGY DRIFT PER ATOM [K]    =         -0.304402262715E+02  -0.325048950962E+02
 POTENTIAL ENERGY[hartree]    =         -0.179712201273E+02  -0.104193540296E+02
 KINETIC ENERGY [hartree]     =          0.188056535941E+02   0.113990541523E+02
 TEMPERATURE [K]              =                   17595.107            10665.281
 *******************************************************************************


 ENERGY| Total FORCE_EVAL ( FIST ) energy (a.u.):            -18.367060048713910


 *******************************************************************************
 ENSEMBLE TYPE                =                                              NVT
 STEP NUMBER                  =                                               31
 TIME [fs]                    =                                        31.000000
 CONSERVED QUANTITY [hartree] =                               0.108174318719E+01

                                              INSTANTANEOUS             AVERAGES
 CPU TIME [s]                 =                        0.03                 0.06
 ENERGY DRIFT PER ATOM [K]    =         -0.310270952078E+02  -0.324572241320E+02
 POTENTIAL ENERGY[hartree]    =         -0.183670600487E+02  -0.106757316431E+02
 KINETIC ENERGY [hartree]     =          0.191813123865E+02   0.116500947405E+02
 TEMPERATURE [K]              =                   17946.584            10900.162
 *******************************************************************************


 ENERGY| Total FORCE_EVAL ( FIST ) energy (a.u.):            -18.727757338623288


 *******************************************************************************
 ENSEMBLE TYPE                =                                              NVT
 STEP NUMBER                  =                                               32
 TIME [fs]                    =                                        32.000000
 CONSERVED QUANTITY [hartree] =                               0.108282761878E+01

                                              INSTANTANEOUS             AVERAGES
 CPU TIME [s]                 =                        0.03                 0.06
 ENERGY DRIFT PER ATOM [K]    =         -0.295185665635E+02  -0.323653910830E+02
 POTENTIAL ENERGY[hartree]    =         -0.187277573386E+02  -0.109273574461E+02
 KINETIC ENERGY [hartree]     =          0.195210110840E+02   0.118960608762E+02
 TEMPERATURE [K]              =                   18264.416            11130.295
 *******************************************************************************


 ENERGY| Total FORCE_EVAL ( FIST ) energy (a.u.):            -19.060380830907533


 *******************************************************************************
 ENSEMBLE TYPE                =                                              NVT
 STEP NUMBER                  =                                               33
 TIME [fs]                    =                                        33.000000
 CONSERVED QUANTITY [hartree] =                               0.108324332928E+01

                                              INSTANTANEOUS             AVERAGES
 CPU TIME [s]                 =                        0.03                 0.06
 ENERGY DRIFT PER ATOM [K]    =         -0.289402809328E+02  -0.322615998663E+02
 POTENTIAL ENERGY[hartree]    =         -0.190603808309E+02  -0.111738127001E+02
 KINETIC ENERGY [hartree]     =          0.198541142632E+02   0.121372140091E+02
 TEMPERATURE [K]              =                   18576.077            11355.924
 *******************************************************************************


 ENERGY| Total FORCE_EVAL ( FIST ) energy (a.u.):            -19.366906754738412


 *******************************************************************************
 ENSEMBLE TYPE                =                                              NVT
 STEP NUMBER                  =                                               34
 TIME [fs]                    =                                        34.000000
 CONSERVED QUANTITY [hartree] =                               0.108301594133E+01

                                              INSTANTANEOUS             AVERAGES
 CPU TIME [s]                 =                        0.03                 0.06
 ENERGY DRIFT PER ATOM [K]    =         -0.292565952538E+02  -0.321732173777E+02
 POTENTIAL ENERGY[hartree]    =         -0.193669067547E+02  -0.114147860547E+02
 KINETIC ENERGY [hartree]     =          0.201417533571E+02   0.123726416370E+02
 TEMPERATURE [K]              =                   18845.200            11576.197
 *******************************************************************************


 ENERGY| Total FORCE_EVAL ( FIST ) energy (a.u.):            -19.643806649538138


 *******************************************************************************
 ENSEMBLE TYPE                =                                              NVT
 STEP NUMBER                  =                                               35
 TIME [fs]                    =                                        35.000000
 CONSERVED QUANTITY [hartree] =                               0.108227155017E+01

                                              INSTANTANEOUS             AVERAGES
 CPU TIME [s]                 =                        0.04                 0.06
 ENERGY DRIFT PER ATOM [K]    =         -0.302921012226E+02  -0.321194712019E+02
 POTENTIAL ENERGY[hartree]    =         -0.196438066495E+02  -0.116499009288E+02
 KINETIC ENERGY [hartree]     =          0.204075258341E+02   0.126022097569E+02
 TEMPERATURE [K]              =                   19093.865            11790.988
 *******************************************************************************


 ENERGY| Total FORCE_EVAL ( FIST ) energy (a.u.):            -19.884547323701359


 *******************************************************************************
 ENSEMBLE TYPE                =                                              NVT
 STEP NUMBER                  =                                               36
 TIME [fs]                    =                                        36.000000
 CONSERVED QUANTITY [hartree] =                               0.108249483039E+01

                                              INSTANTANEOUS             AVERAGES
 CPU TIME [s]                 =                        0.26                 0.06
 ENERGY DRIFT PER ATOM [K]    =         -0.299815010802E+02  -0.320600831429E+02
 POTENTIAL ENERGY[hartree]    =         -0.198845473237E+02  -0.118786411065E+02
 KINETIC ENERGY [hartree]     =          0.206328276054E+02   0.128252824750E+02
 TEMPERATURE [K]              =                   19304.663            11999.701
 *******************************************************************************


 ENERGY| Total FORCE_EVAL ( FIST ) energy (a.u.):            -20.093353622382356


 *******************************************************************************
 ENSEMBLE TYPE                =                                              NVT
 STEP NUMBER                  =                                               37
 TIME [fs]                    =                                        37.000000
 CONSERVED QUANTITY [hartree] =                               0.108288408492E+01

                                              INSTANTANEOUS             AVERAGES
 CPU TIME [s]                 =                        0.03                 0.06
 ENERGY DRIFT PER ATOM [K]    =         -0.294400177617E+02  -0.319892705651E+02
 POTENTIAL ENERGY[hartree]    =         -0.200933536224E+02  -0.121006603637E+02
 KINETIC ENERGY [hartree]     =          0.208316628998E+02   0.130416711351E+02
 TEMPERATURE [K]              =                   19490.699            12202.160
 *******************************************************************************


 ENERGY| Total FORCE_EVAL ( FIST ) energy (a.u.):            -20.277096863912210


 *******************************************************************************
 ENSEMBLE TYPE                =                                              NVT
 STEP NUMBER                  =                                               38
 TIME [fs]                    =                                        38.000000
 CONSERVED QUANTITY [hartree] =                               0.108396349242E+01

                                              INSTANTANEOUS             AVERAGES
 CPU TIME [s]                 =                        0.03                 0.06
 ENERGY DRIFT PER ATOM [K]    =         -0.279384780142E+02  -0.318826707611E+02
 POTENTIAL ENERGY[hartree]    =         -0.202770968639E+02  -0.123158297452E+02
 KINETIC ENERGY [hartree]     =          0.210049898640E+02   0.132512321543E+02
 TEMPERATURE [K]              =                   19652.869            12398.232
 *******************************************************************************


 ENERGY| Total FORCE_EVAL ( FIST ) energy (a.u.):            -20.447305573640715


 *******************************************************************************
 ENSEMBLE TYPE                =                                              NVT
 STEP NUMBER                  =                                               39
 TIME [fs]                    =                                        39.000000
 CONSERVED QUANTITY [hartree] =                               0.108522779703E+01

                                              INSTANTANEOUS             AVERAGES
 CPU TIME [s]                 =                        0.03                 0.06
 ENERGY DRIFT PER ATOM [K]    =         -0.261797320123E+02  -0.317364415624E+02
 POTENTIAL ENERGY[hartree]    =         -0.204473055736E+02  -0.125243291255E+02
 KINETIC ENERGY [hartree]     =          0.211667818826E+02   0.134541949678E+02
 TEMPERATURE [K]              =                   19804.246            12588.129
 *******************************************************************************


 ENERGY| Total FORCE_EVAL ( FIST ) energy (a.u.):            -20.616468618283996


 *******************************************************************************
 ENSEMBLE TYPE                =                                              NVT
 STEP NUMBER                  =                                               40
 TIME [fs]                    =                                        40.000000
 CONSERVED QUANTITY [hartree] =                               0.108564351680E+01

                                              INSTANTANEOUS             AVERAGES
 CPU TIME [s]                 =                        0.03                 0.06
 ENERGY DRIFT PER ATOM [K]    =         -0.256014334920E+02  -0.315830663606E+02
 POTENTIAL ENERGY[hartree]    =         -0.206164686183E+02  -0.127266326128E+02
 KINETIC ENERGY [hartree]     =          0.213166820837E+02   0.136507571457E+02
 TEMPERATURE [K]              =                   19944.497            12772.039
 *******************************************************************************


 ENERGY| Total FORCE_EVAL ( FIST ) energy (a.u.):            -20.788560428786688


 *******************************************************************************
 ENSEMBLE TYPE                =                                              NVT
 STEP NUMBER                  =                                               41
 TIME [fs]                    =                                        41.000000
 CONSERVED QUANTITY [hartree] =                               0.108553124314E+01

                                              INSTANTANEOUS             AVERAGES
 CPU TIME [s]                 =                        0.04                 0.06
 ENERGY DRIFT PER ATOM [K]    =         -0.257576148791E+02  -0.314409821782E+02
 POTENTIAL ENERGY[hartree]    =         -0.207885604288E+02  -0.129232649985E+02
 KINETIC ENERGY [hartree]     =          0.214744213249E+02   0.138415782232E+02
 TEMPERATURE [K]              =                   20092.082            12950.576
 *******************************************************************************


 ENERGY| Total FORCE_EVAL ( FIST ) energy (a.u.):            -20.957792348957913


 *******************************************************************************
 ENSEMBLE TYPE                =                                              NVT
 STEP NUMBER                  =                                               42
 TIME [fs]                    =                                        42.000000
 CONSERVED QUANTITY [hartree] =                               0.108525600835E+01

                                              INSTANTANEOUS             AVERAGES
 CPU TIME [s]                 =                        0.03                 0.06
 ENERGY DRIFT PER ATOM [K]    =         -0.261404878731E+02  -0.313147799328E+02
 POTENTIAL ENERGY[hartree]    =         -0.209577923490E+02  -0.131145632688E+02
 KINETIC ENERGY [hartree]     =          0.216271780230E+02   0.140269496471E+02
 TEMPERATURE [K]              =                   20235.006            13124.015
 *******************************************************************************


 ENERGY| Total FORCE_EVAL ( FIST ) energy (a.u.):            -21.113438657514966


 *******************************************************************************
 ENSEMBLE TYPE                =                                              NVT
 STEP NUMBER                  =                                               43
 TIME [fs]                    =                                        43.000000
 CONSERVED QUANTITY [hartree] =                               0.108453444978E+01

                                              INSTANTANEOUS             AVERAGES
 CPU TIME [s]                 =                        0.03                 0.06
 ENERGY DRIFT PER ATOM [K]    =         -0.271442319385E+02  -0.312177904446E+02
[...]


 ENERGY| Total FORCE_EVAL ( FIST ) energy (a.u.):            -22.875380946817188


 *******************************************************************************
 ENSEMBLE TYPE                =                                              NVT
 STEP NUMBER                  =                                               87
 TIME [fs]                    =                                        87.000000
 CONSERVED QUANTITY [hartree] =                               0.108653823469E+01

                                              INSTANTANEOUS             AVERAGES
 CPU TIME [s]                 =                        0.04                 0.07
 ENERGY DRIFT PER ATOM [K]    =         -0.243568113522E+02  -0.287167530541E+02
 POTENTIAL ENERGY[hartree]    =         -0.228753809468E+02  -0.178894562873E+02
 KINETIC ENERGY [hartree]     =          0.226892055563E+02   0.184448565848E+02
 TEMPERATURE [K]              =                   21228.669            17257.535
 *******************************************************************************


 ENERGY| Total FORCE_EVAL ( FIST ) energy (a.u.):            -22.888358960348480


 *******************************************************************************
 ENSEMBLE TYPE                =                                              NVT
 STEP NUMBER                  =                                               88
 TIME [fs]                    =                                        88.000000
 CONSERVED QUANTITY [hartree] =                               0.108509638836E+01

                                              INSTANTANEOUS             AVERAGES
 CPU TIME [s]                 =                        0.03                 0.07
 ENERGY DRIFT PER ATOM [K]    =         -0.263625316925E+02  -0.286900005386E+02
 POTENTIAL ENERGY[hartree]    =         -0.228883589603E+02  -0.179462619995E+02
 KINETIC ENERGY [hartree]     =          0.226860824823E+02   0.184930523337E+02
 TEMPERATURE [K]              =                   21225.747            17302.628
 *******************************************************************************


 ENERGY| Total FORCE_EVAL ( FIST ) energy (a.u.):            -22.890666055329476


 *******************************************************************************
 ENSEMBLE TYPE                =                                              NVT
 STEP NUMBER                  =                                               89
 TIME [fs]                    =                                        89.000000
 CONSERVED QUANTITY [hartree] =                               0.108486648901E+01

                                              INSTANTANEOUS             AVERAGES
 CPU TIME [s]                 =                        0.03                 0.07
 ENERGY DRIFT PER ATOM [K]    =         -0.266823395635E+02  -0.286674425501E+02
 POTENTIAL ENERGY[hartree]    =         -0.228906660553E+02  -0.180018171012E+02
 KINETIC ENERGY [hartree]     =          0.226705616527E+02   0.185399906406E+02
 TEMPERATURE [K]              =                   21211.226            17346.545
 *******************************************************************************


 ENERGY| Total FORCE_EVAL ( FIST ) energy (a.u.):            -22.878868293238817


 *******************************************************************************
 ENSEMBLE TYPE                =                                              NVT
 STEP NUMBER                  =                                               90
 TIME [fs]                    =                                        90.000000
 CONSERVED QUANTITY [hartree] =                               0.108459225757E+01

                                              INSTANTANEOUS             AVERAGES
 CPU TIME [s]                 =                        0.28                 0.07
 ENERGY DRIFT PER ATOM [K]    =         -0.270638168050E+02  -0.286496244863E+02
 POTENTIAL ENERGY[hartree]    =         -0.228788682932E+02  -0.180560065589E+02
 KINETIC ENERGY [hartree]     =          0.226408350697E+02   0.185855555787E+02
 TEMPERATURE [K]              =                   21183.413            17389.177
 *******************************************************************************


 ENERGY| Total FORCE_EVAL ( FIST ) energy (a.u.):            -22.855505984907012


 *******************************************************************************
 ENSEMBLE TYPE                =                                              NVT
 STEP NUMBER                  =                                               91
 TIME [fs]                    =                                        91.000000
 CONSERVED QUANTITY [hartree] =                               0.108488856539E+01

                                              INSTANTANEOUS             AVERAGES
 CPU TIME [s]                 =                        0.03                 0.07
 ENERGY DRIFT PER ATOM [K]    =         -0.266516295998E+02  -0.286276684985E+02
 POTENTIAL ENERGY[hartree]    =         -0.228555059849E+02  -0.181087483109E+02
 KINETIC ENERGY [hartree]     =          0.226098695768E+02   0.186297788095E+02
 TEMPERATURE [K]              =                   21154.440            17430.554
 *******************************************************************************


 ENERGY| Total FORCE_EVAL ( FIST ) energy (a.u.):            -22.831448373065030


 *******************************************************************************
 ENSEMBLE TYPE                =                                              NVT
 STEP NUMBER                  =                                               92
 TIME [fs]                    =                                        92.000000
 CONSERVED QUANTITY [hartree] =                               0.108422182060E+01

                                              INSTANTANEOUS             AVERAGES
 CPU TIME [s]                 =                        0.03                 0.07
 ENERGY DRIFT PER ATOM [K]    =         -0.275791234355E+02  -0.286162712696E+02
 POTENTIAL ENERGY[hartree]    =         -0.228314483731E+02  -0.181600820072E+02
 KINETIC ENERGY [hartree]     =          0.225750041727E+02   0.186726616938E+02
 TEMPERATURE [K]              =                   21121.819            17470.676
 *******************************************************************************


 ENERGY| Total FORCE_EVAL ( FIST ) energy (a.u.):            -22.810156356765091


 *******************************************************************************
 ENSEMBLE TYPE                =                                              NVT
 STEP NUMBER                  =                                               93
 TIME [fs]                    =                                        93.000000
 CONSERVED QUANTITY [hartree] =                               0.108446146046E+01

                                              INSTANTANEOUS             AVERAGES
 CPU TIME [s]                 =                        0.03                 0.07
 ENERGY DRIFT PER ATOM [K]    =         -0.272457657539E+02  -0.286015346511E+02
 POTENTIAL ENERGY[hartree]    =         -0.228101563568E+02  -0.182100828067E+02
 KINETIC ENERGY [hartree]     =          0.225379559317E+02   0.187142239975E+02
 TEMPERATURE [K]              =                   21087.156            17509.563
 *******************************************************************************


 ENERGY| Total FORCE_EVAL ( FIST ) energy (a.u.):            -22.794533132843931


 *******************************************************************************
 ENSEMBLE TYPE                =                                              NVT
 STEP NUMBER                  =                                               94
 TIME [fs]                    =                                        94.000000
 CONSERVED QUANTITY [hartree] =                               0.108436746903E+01

                                              INSTANTANEOUS             AVERAGES
 CPU TIME [s]                 =                        0.03                 0.07
 ENERGY DRIFT PER ATOM [K]    =         -0.273765151505E+02  -0.285885025288E+02
 POTENTIAL ENERGY[hartree]    =         -0.227945331328E+02  -0.182588535548E+02
 KINETIC ENERGY [hartree]     =          0.225020655683E+02   0.187545201844E+02
 TEMPERATURE [K]              =                   21053.576            17547.265
 *******************************************************************************


 ENERGY| Total FORCE_EVAL ( FIST ) energy (a.u.):            -22.780698246675676


 *******************************************************************************
 ENSEMBLE TYPE                =                                              NVT
 STEP NUMBER                  =                                               95
 TIME [fs]                    =                                        95.000000
 CONSERVED QUANTITY [hartree] =                               0.108422267075E+01

                                              INSTANTANEOUS             AVERAGES
 CPU TIME [s]                 =                        0.28                 0.07
 ENERGY DRIFT PER ATOM [K]    =         -0.275779408098E+02  -0.285778650370E+02
 POTENTIAL ENERGY[hartree]    =         -0.227806982467E+02  -0.183064519200E+02
 KINETIC ENERGY [hartree]     =          0.224780192929E+02   0.187937149119E+02
 TEMPERATURE [K]              =                   21031.077            17583.937
 *******************************************************************************


 ENERGY| Total FORCE_EVAL ( FIST ) energy (a.u.):            -22.762688129755446


 *******************************************************************************
 ENSEMBLE TYPE                =                                              NVT
 STEP NUMBER                  =                                               96
 TIME [fs]                    =                                        96.000000
 CONSERVED QUANTITY [hartree] =                               0.108450979591E+01

                                              INSTANTANEOUS             AVERAGES
 CPU TIME [s]                 =                        0.04                 0.07
 ENERGY DRIFT PER ATOM [K]    =         -0.271785273944E+02  -0.285632886032E+02
 POTENTIAL ENERGY[hartree]    =         -0.227626881298E+02  -0.183528710472E+02
 KINETIC ENERGY [hartree]     =          0.224417989132E+02   0.188317157869E+02
 TEMPERATURE [K]              =                   20997.189            17619.492
 *******************************************************************************


 ENERGY| Total FORCE_EVAL ( FIST ) energy (a.u.):            -22.741732082781148


 *******************************************************************************
 ENSEMBLE TYPE                =                                              NVT
 STEP NUMBER                  =                                               97
 TIME [fs]                    =                                        97.000000
 CONSERVED QUANTITY [hartree] =                               0.108540736854E+01

                                              INSTANTANEOUS             AVERAGES
 CPU TIME [s]                 =                        0.03                 0.07
 ENERGY DRIFT PER ATOM [K]    =         -0.259299340763E+02  -0.285361406184E+02
 POTENTIAL ENERGY[hartree]    =         -0.227417320828E+02  -0.183981170372E+02
 KINETIC ENERGY [hartree]     =          0.224164545356E+02   0.188686718565E+02
 TEMPERATURE [K]              =                   20973.476            17654.069
 *******************************************************************************


 ENERGY| Total FORCE_EVAL ( FIST ) energy (a.u.):            -22.727711832691444


 *******************************************************************************
 ENSEMBLE TYPE                =                                              NVT
 STEP NUMBER                  =                                               98
 TIME [fs]                    =                                        98.000000
 CONSERVED QUANTITY [hartree] =                               0.108482361040E+01

                                              INSTANTANEOUS             AVERAGES
 CPU TIME [s]                 =                        0.03                 0.07
 ENERGY DRIFT PER ATOM [K]    =         -0.267419870355E+02  -0.285178329288E+02
 POTENTIAL ENERGY[hartree]    =         -0.227277118327E+02  -0.184422965760E+02
 KINETIC ENERGY [hartree]     =          0.223836067237E+02   0.189045385388E+02
 TEMPERATURE [K]              =                   20942.742            17687.627
 *******************************************************************************


 ENERGY| Total FORCE_EVAL ( FIST ) energy (a.u.):            -22.724415501867878


 *******************************************************************************
 ENSEMBLE TYPE                =                                              NVT
 STEP NUMBER                  =                                               99
 TIME [fs]                    =                                        99.000000
 CONSERVED QUANTITY [hartree] =                               0.108481095664E+01

                                              INSTANTANEOUS             AVERAGES
 CPU TIME [s]                 =                        0.03                 0.07
 ENERGY DRIFT PER ATOM [K]    =         -0.267595893998E+02  -0.285000728931E+02
 POTENTIAL ENERGY[hartree]    =         -0.227244155019E+02  -0.184855503025E+02
 KINETIC ENERGY [hartree]     =          0.223666302057E+02   0.189395091617E+02
 TEMPERATURE [K]              =                   20926.859            17720.346
 *******************************************************************************


 ENERGY| Total FORCE_EVAL ( FIST ) energy (a.u.):            -22.732288173904973


 *******************************************************************************
 ENSEMBLE TYPE                =                                              NVT
 STEP NUMBER                  =                                              100
 TIME [fs]                    =                                       100.000000
 CONSERVED QUANTITY [hartree] =                               0.108543512920E+01

                                              INSTANTANEOUS             AVERAGES
 CPU TIME [s]                 =                        0.02                 0.07
 ENERGY DRIFT PER ATOM [K]    =         -0.258913168390E+02  -0.284739853326E+02
 POTENTIAL ENERGY[hartree]    =         -0.227322881739E+02  -0.185280176812E+02
 KINETIC ENERGY [hartree]     =          0.223556465819E+02   0.189736705359E+02
 TEMPERATURE [K]              =                   20916.582            17752.309
 *******************************************************************************


 -------------------------------------------------------------------------------
 -                                                                             -
 -                                DBCSR STATISTICS                             -
 -                                                                             -
 -------------------------------------------------------------------------------
 COUNTER                                    TOTAL       BLAS       SMM       ACC
 flops inhomo. stacks                           0       0.0%      0.0%      0.0%
 flops total                         0.000000E+00       0.0%      0.0%      0.0%
 flops max/rank                      0.000000E+00       0.0%      0.0%      0.0%
 matmuls inhomo. stacks                         0       0.0%      0.0%      0.0%
 matmuls total                                  0       0.0%      0.0%      0.0%
 number of processed stacks                     0       0.0%      0.0%      0.0%
 average stack size                                     0.0       0.0       0.0
 marketing flops                     0.000000E+00
 -------------------------------------------------------------------------------

 MEMORY| Estimated peak process memory [MiB]                                   0

 -------------------------------------------------------------------------------
 -                                                                             -
 -                           R E F E R E N C E S                               -
 -                                                                             -
 -------------------------------------------------------------------------------
 
 CP2K version 6.1, the CP2K developers group (2018).
 CP2K is freely available from https://www.cp2k.org/ .

 Schuett, Ole; Messmer, Peter; Hutter, Juerg; VandeVondele, Joost. 
 Electronic Structure Calculations on Graphics Processing Units, John Wiley & Sons, Ltd, 173-190 (2016). 
 GPU-Accelerated Sparse Matrix-Matrix Multiplication for Linear Scaling Density Functional Theory.
 http://dx.doi.org/10.1002/9781118670712.ch8


 Borstnik, U; VandeVondele, J; Weber, V; Hutter, J. 
 PARALLEL COMPUTING, 40 (5-6), 47-58 (2014). 
 Sparse matrix multiplication: The distributed block-compressed sparse
 row library.
 http://dx.doi.org/10.1016/j.parco.2014.03.012


 Hutter, J; Iannuzzi, M; Schiffmann, F; VandeVondele, J. 
 WILEY INTERDISCIPLINARY REVIEWS-COMPUTATIONAL MOLECULAR SCIENCE, 4 (1), 15-25 (2014). 
 CP2K: atomistic simulations of condensed matter systems.
 http://dx.doi.org/10.1002/wcms.1159


 Bussi, G; Donadio, D; Parrinello, M. 
 JOURNAL OF CHEMICAL PHYSICS, 126 (1), 014101 (2007). 
 Canonical sampling through velocity rescaling.
 http://dx.doi.org/10.1063/1.2408420


 Frigo, M; Johnson, SG. 
 PROCEEDINGS OF THE IEEE, 93 (2), 216-231 (2005). 
 The design and implementation of FFTW3.
 http://dx.doi.org/10.1109/JPROC.2004.840301


 -------------------------------------------------------------------------------
 -                                                                             -
 -                                T I M I N G                                  -
 -                                                                             -
 -------------------------------------------------------------------------------
 SUBROUTINE                       CALLS  ASD         SELF TIME        TOTAL TIME
                                MAXIMUM       AVERAGE  MAXIMUM  AVERAGE  MAXIMUM
 CP2K                                 1  1.0    0.006    0.006    6.778    6.778
 qs_mol_dyn_low                       1  2.0    0.011    0.011    6.742    6.742
 fist_calc_energy_force             101  4.0    0.006    0.006    5.867    5.867
 velocity_verlet                    100  3.0    0.016    0.016    5.609    5.609
 list_control                       101  5.0    0.002    0.002    3.595    3.595
 build_fist_neighbor_lists           14  5.9    0.001    0.001    3.592    3.592
 build_neighbor_lists                14  6.9    3.578    3.578    3.579    3.579
 force_nonbond                      101  5.0    2.256    2.256    2.256    2.256
 md_output                          100  3.0    0.001    0.001    0.778    0.778
 md_write_output                    101  4.0    0.565    0.565    0.730    0.730
 write_trajectory                   404  5.0    0.046    0.046    0.163    0.163
 -------------------------------------------------------------------------------

 The number of warnings for this run is : 4
 
 -------------------------------------------------------------------------------
  **** **** ******  **  PROGRAM ENDED AT                 2020-04-23 18:03:22.093
 ***** ** ***  *** **   PROGRAM RAN ON                         bass-macbook.home
 **    ****   ******    PROGRAM RAN BY                                  bvanbeek
 ***** **    ** ** **   PROGRAM PROCESS ID                                 96259
  **** **  *******  **  PROGRAM STOPPED IN /Users/bvanbeek/Documents/GitHub/auto
                                           -FOX/FOX/examples/private/MM_MD_workd
                                           ir/md.028
