     227
 i =        0, time =        0.000, E =       -11.1259140714
 Cd        -8.6216924880        0.4810107428        3.4775887729
 Cd        -5.8723589632       -0.2566559957        7.1151373767
 Cd        -8.4076147924       -2.1531404527        0.3867588804
 Cd        -6.8957642261       -3.2896665849        3.9600318291
 Cd        -3.6930098048       -3.6992689615        7.3819491709
 Cd        -6.4429261463       -6.2347087238        0.4622469067
 Cd        -4.3123952394       -6.8285875372        3.9039095072
 Cd        -6.1141073353        3.8626235599        2.9066844924
 Cd        -3.6048790416        2.8797284733        6.5917986711
 Cd        -6.7531255596        1.1841266196       -0.3182182747
 Cd        -4.0437606329        0.0729837467        3.0511954168
 Cd        -1.7753257667       -0.3121054857        6.8316599018
 Cd        -6.3661028473       -1.4630135273       -3.4383357626
 Cd        -4.3602814436       -3.1214810613       -0.1759283953
 Cd        -2.2424276819       -3.6242998489        3.6335413818
 Cd         0.1757294635       -3.9625201566        7.0364714760
 Cd        -4.2692200317       -5.9860442556       -3.0005266361
 Cd        -2.2482225396       -6.7972628816        0.6786391664
 Cd         0.0669003827       -7.3030327295        3.8545421700
 Cd        -4.0792754193        7.4105475565        2.4175118797
 Cd        -1.6116442377        6.4880648240        6.2478272306
 Cd        -4.3308002626        4.8127262164       -0.6762739309
 Cd        -1.8326132452        3.6694977750        3.1598212265
 Cd         0.4939817277        3.1637060931        6.7202662426
 Cd        -4.5980154021        1.9988297698       -4.0880170010
 Cd        -2.1651194586        1.0165564496       -0.4536921834
 Cd         0.1376109507       -0.0659106884        3.1336818174
 Cd         2.6419074521       -0.6636939286        6.8958319365
 Cd        -4.1515129292       -0.5348426091       -6.9620217917
 Cd        -2.2012490343       -1.8491984656       -3.4894107829
 Cd         0.0359311218       -2.8494155653       -0.0264680683
 Cd         2.4407298775       -3.8224684908        3.5289587884
 Cd         4.5907434619       -4.2169180472        6.5928471603
 Cd        -2.6321953796       -4.5685798778       -6.0773989300
 Cd        -0.3638438279       -6.1221236347       -3.0620735359
 Cd         1.9882729153       -6.8506852632       -0.0376753302
 Cd         4.3604701588       -7.5063202656        3.0981086138
 Cd        -2.4313710890        8.2839908015       -1.2010761441
 Cd         0.1210964618        6.7915494583        2.0748938605
 Cd         2.2602783261        6.3879934074        5.9824457591
 Cd        -2.2743307721        5.5403016700       -4.1096429978
 Cd         0.1552258413        4.6164378819       -0.9814446932
 Cd         2.6173372932        3.7540356816        2.4616712460
 Cd         4.3934694910        2.5024270436        5.6448470259
 Cd        -2.3839877703        3.0961459608       -7.5397423510
 Cd        -0.1308699873        1.7716472388       -4.3458913396
 Cd         2.1522040622        0.8595996928       -0.9600505658
 Cd         4.3027041934       -0.4425155449        2.5248589789
 Cd         6.4943132815       -0.6514444341        6.0110723312
 Cd         0.4032906214       -0.5920449882       -7.0625722312
 Cd         2.1504065746       -1.8410095193       -3.9631978812
 Cd         4.1282053355       -2.9764966895       -0.5499119195
 Cd         6.9189885741       -3.8001688729        2.8840486736
 Cd         1.0693858855       -4.7693596381       -6.7909688629
 Cd         3.6529341800       -5.7620820022       -3.6150795142
 Cd         5.7341856059       -6.5625995016       -0.3323817960
 Cd         2.4532379782        8.1225833618       -1.1556872380
 Cd         4.4025673150        7.2904811152        1.7928276254
 Cd         2.3800547108        5.2453457502       -4.8107637235
 Cd         4.8184663347        4.7191125514       -1.4277792117
 Cd         6.7589411702        3.8390778732        2.0295448973
 Cd         2.6210634084        2.7844913241       -7.7035228004
 Cd         4.8495943395        1.7843685348       -4.5225056138
 Cd         6.7261500983        1.0662237140       -0.9642295531
 Cd         8.8881450478        0.4141445330        2.4369093904
 Cd         4.3615782352       -0.9213178924       -7.7328888960
 Cd         6.7438649008       -1.9767569930       -4.2031112584
 Cd         8.5272445020       -2.6218905711       -0.2551455218
 Se        -9.0557725106        0.2424574140        0.9180313808
 Se        -6.3745872764       -0.6570220647        4.4225742627
 Se        -3.9358548519       -1.3506397678        8.2925868769
 Se        -6.5830028390       -3.7408669090        1.3890860046
 Se        -4.5802302415       -4.2716541219        4.8585926421
 Se        -4.6110671623       -7.7792240778        1.5343213278
 Se        -6.6407812351        3.9866809498        0.4586064126
 Se        -4.0705866514        2.6241591830        3.9150270775
 Se        -1.6315747320        2.0143859544        7.9219454430
 Se        -6.7106235468        0.9827493806       -3.1628202938
 Se        -4.4077684895       -0.2106461950        0.3970531668
 Se        -2.0534879979       -1.1190641497        4.2604482105
 Se         0.4069246601       -1.5676855049        8.0617057342
 Se        -4.4126107232       -3.1307459794       -2.8028288282
 Se        -2.2371864822       -4.0884616040        0.9473336128
 Se         0.1541797359       -4.8148952714        4.4843326207
 Se        -2.4147106009       -7.4199706225       -2.0529393442
 Se        -0.0662571417       -7.8800811154        1.3078284855
 Se        -4.5519687636        7.5920037884       -0.0122560791
 Se        -1.8482840651        6.3647212661        3.5390459072
 Se         0.4006735392        5.8241498358        7.5878867146
 Se        -4.4655945585        4.5529209660       -3.3484418515
 Se        -2.0798083538        3.7153034916        0.3451575142
 Se         0.4973892782        2.6967113851        3.7286137790
 Se         2.7724753484        1.9958260876        7.6298945277
 Se        -4.6126224962        2.0736182894       -6.9031574659
 Se        -2.2770211290        0.8531533747       -3.1284312065
 Se         0.0138865169       -0.1636477002        0.3858468104
 Se         2.3115473387       -1.3198431962        4.0017354986
 Se         4.8624545925       -1.8855864388        7.7371297607
 Se        -2.0700877949       -1.9675257511       -6.4603372509
 Se        -0.0447057629       -3.1582708631       -2.8090856920
 Se         2.2343306950       -4.2299664240        0.7817840723
 Se         4.8342987615       -4.9516929708        4.0974643468
 Se        -0.7556003326       -6.2829108386       -5.8406699955
 Se         1.9243057511       -7.4784768035       -2.6074198353
 Se         4.2543989663       -8.3809591814        0.7363809319
 Se         0.0386925703        7.3677075300       -0.4939635450
 Se         2.3791568525        6.5289221229        3.1400383851
 Se         0.0465974103        4.4270318221       -3.5936563407
 Se         2.5167269427        3.6273521599       -0.0581806204
 Se         4.7705604635        2.4670139639        3.1233546104
 Se         0.0435933033        1.9323944164       -6.9695738842
 Se         2.2733127965        0.7623703678       -3.6584263160
 Se         4.3816175435       -0.2841549253       -0.0177063702
 Se         6.9670500347       -1.1290204494        3.5565582379
 Se         2.2410869402       -2.2702007814       -6.6798205275
 Se         4.3723294721       -3.1971869108       -3.2130677403
 Se         6.4331938555       -4.1098532443        0.4136420186
 Se         4.8503033307        7.5509093293       -0.7463548497
 Se         4.8776288797        4.5477652435       -4.0091414448
 Se         7.0830986217        3.5950723552       -0.6434567968
 Se         4.7810064642        1.5273410534       -7.5566303287
 Se         6.9188050062        0.6130038217       -3.7081238627
 Se         9.1066871843       -0.0609359671       -0.0919647969
  C         6.9955771113       -6.9586634775       -2.8583426301
  H         7.7780160969       -7.1271873265       -3.6573399650
  O         5.8389952916       -6.4652991204       -3.1445809228
  O         7.2920676004       -7.2683568805       -1.6893132711
  C         3.3939431960       -6.2668607509       -6.9513074648
  H         4.3245440932       -6.8689211647       -7.0591687882
  O         3.0202466073       -5.7860511295       -5.7843136273
  O         2.6220129789       -6.1746538788       -7.9242101403
  C         6.3116555909       -2.9071154185       -7.4921130606
  H         7.0978863851       -3.7212906458       -7.4285512081
  O         6.0096715894       -2.3219711192       -6.3505932827
  O         5.9403243477       -2.4750431756       -8.6116316973
  C         8.9837561036       -3.3697375837       -3.4349055328
  H         9.9249943929       -3.8864043165       -3.1840078659
  O         8.5659407989       -3.4209184445       -4.6048832464
  O         8.2714489672       -2.6971151254       -2.5207012617
  C         9.7902109758       -4.6282247391        2.1768529346
  H        10.6284324694       -5.3337138149        2.3552924638
  O         9.7484501532       -4.1824896055        0.9942458601
  O         9.0219926648       -4.5705851174        3.1873629795
  C        -2.8252708508       -8.8894178348        5.3653894160
  H        -2.3915771747       -9.8892286280        5.4446685031
  O        -1.9808601030       -7.9304545651        5.0436955975
  O        -4.0908415257       -8.7280019527        5.4030844137
  C         3.0047406823       -8.6887063298        5.2919739424
  H         2.6853413808       -9.0312323512        6.2714246943
  O         1.9985977812       -8.3553887881        4.5599054594
  O         4.2197147413       -8.6069092298        4.9235206312
  C         2.8732291572       -5.7090624943        8.2322507888
  H         2.4095730423       -6.3582442170        8.9295273658
  O         2.2236878889       -4.8031284854        7.6183804854
  O         4.1525405945       -5.8988692439        8.1468427445
  C        -2.5324052264       -5.9090323801        8.5168983878
  H        -2.0058427467       -6.7599986745        9.0204193621
  O        -1.9189018681       -5.2527647032        7.5983339134
  O        -3.6521974131       -5.4981014961        8.8936623702
  C        -6.8661340661        2.3082426882        7.3884767521
  H        -7.2433530482        3.2983326111        7.3747512577
  O        -5.6189307919        2.1553364867        7.5292857639
  O        -7.6694328727        1.3672322100        7.2032576312
  C        -4.1128935570        6.2776012356        7.2258109093
  H        -5.2184092536        6.2949225170        7.4003980339
  O        -3.5215502414        5.2331222329        6.7794929280
  O        -3.5956064510        7.4679880815        7.3184340370
  C        -6.2584500423        7.1467273309        4.0778865765
  H        -7.2018864753        7.1620259062        4.6862261037
  O        -5.8042352338        6.0508881806        3.6277903665
  O        -5.6141473350        8.2227071687        3.8530055117
  C        -9.2670155991        2.9624473135        4.4549609073
  H        -9.7760873251        3.8307467380        4.7753730710
  O        -8.0580447847        3.0137717908        4.1153681461
  O       -10.0869615960        1.9755230626        4.3964141791
  C        -9.5997958208       -3.5202239981        4.2555074891
  H       -10.6284324694       -3.6062117458        4.7363993397
  O        -9.3836198173       -2.7271085544        3.2939504316
  O        -8.6749593009       -4.3055307223        4.7674147240
  C        -5.4063829718       -6.0836320759       -6.1576393485
  H        -6.0390997038       -6.5934387315       -6.8768176703
  O        -5.3157147411       -6.5042627408       -4.9638375967
  O        -4.7997118332       -5.0931497246       -6.6842330004
  C        -7.4812021438       -7.2683192216       -1.8337008205
  H        -7.8430239833       -7.7214409635       -2.7403108931
  O        -6.3847231004       -6.5596142310       -1.8855223803
  O        -8.0870004405       -7.4369608581       -0.7449951352
  C        -9.2637717352       -3.4248031045       -2.1287629167
  H        -9.5435102925       -4.0726156799       -2.9624854104
  O        -8.1685743898       -2.7562864935       -2.2769679175
  O        -9.8293124780       -3.4993302663       -1.0042472880
  C        -6.7198117275       -1.5155721631       -7.0057360974
  H        -7.7266400310       -1.9701098143       -7.1795729881
  O        -6.3208037730       -1.2812141421       -5.7891801227
  O        -6.0546670581       -1.2647410752       -8.0219575549
  C        -1.9610306020        5.6962737072       -7.4797868569
  H        -1.8068881661        6.7616764611       -7.4798700689
  O        -2.4613788677        5.1953402046       -6.4147373301
  O        -1.7592038190        5.0404242691       -8.5376948407
  C        -1.7153677193        9.0065729983       -3.7807068554
  H        -1.3518565997        9.2891789052       -4.8285272378
  O        -1.7735635219        7.7204009534       -3.5311974415
  O        -1.9589811591        9.8892286280       -2.9296575010
  C         2.5176986766        8.6527359013       -4.1276241396
  H         2.7356319561        9.0838176512       -5.0545617483
  O         2.0941304229        7.4607563111       -4.0382054964
  O         2.6632020791        9.4136986823       -3.1567247192
  C         1.7405814703        5.3615037054       -8.2026998584
  H         1.4592813282        6.4433815072       -8.3446733349
  O         2.2712544771        5.0744229803       -7.0359036782
  O         1.5374971892        4.4786315137       -9.0204193621
  C         9.4791869119        2.6134878200        3.9079418032
  H         9.6264681644        3.4611325178        4.5867541287
  O         8.5294682966        2.7206869475        3.0468687327
  O        10.1884170796        1.5361363159        4.0354546634
  C         6.6320899766        7.0427804887        3.3240585285
  H         7.5183451153        7.1103565644        4.0025867163
  O         6.4921259472        6.1579139584        2.4473334656
  O         5.8014508194        7.8970951585        3.5804466065
  C         4.7468288793        5.8510846562        6.9391041765
  H         5.6837062732        5.7110173508        7.4566454645
  O         4.3315486404        4.9881730889        6.0840680113
  O         4.1390624477        6.9214380767        7.1338855679
  C         7.5642974957        1.7429307679        7.1823006621
  H         8.1116275708        2.6102062210        7.6466333920
  O         6.7423080014        2.0330978891        6.2208765696
  O         7.8434776238        0.5800715711        7.5931108165
     227
 i =        1, time =        1.000, E =       -11.1351341344
 Cd        -8.6193412867        0.4796387463        3.4771744387
 Cd        -5.8715457232       -0.2571926889        7.1143922303
 Cd        -8.4082190582       -2.1541416850        0.3852295255
 Cd        -6.8927275141       -3.2918021758        3.9610973354
 Cd        -3.6901791788       -3.7003953040        7.3823720929
 Cd        -6.4419772301       -6.2357528927        0.4642774111
 Cd        -4.3123505468       -6.8296149332        3.9052262534
 Cd        -6.1163836882        3.8609281792        2.9055735174
 Cd        -3.6066263114        2.8812306134        6.5903959715
 Cd        -6.7534247455        1.1872355192       -0.3192224038
 Cd        -4.0444185015        0.0755177261        3.0501789487
 Cd        -1.7741886847       -0.3125817663        6.8335700781
 Cd        -6.3660935783       -1.4624517237       -3.4401718414
 Cd        -4.3613562952       -3.1217806162       -0.1745525710
 Cd        -2.2426089853       -3.6215780740        3.6336057286
 Cd         0.1786954972       -3.9615934991        7.0369340234
 Cd        -4.2693746863       -5.9882135121       -2.9988641110
 Cd        -2.2487171231       -6.7966148335        0.6791658476
 Cd         0.0677833800       -7.3029979641        3.8542334598
 Cd        -4.0802795266        7.4119318509        2.4182790922
 Cd        -1.6107896288        6.4879391088        6.2509530571
 Cd        -4.3325256994        4.8128102394       -0.6769476912
 Cd        -1.8303931334        3.6695982879        3.1589380096
 Cd         0.4898051056        3.1633468356        6.7205206086
 Cd        -4.5996125163        2.0001079460       -4.0890177880
 Cd        -2.1628935805        1.0181303727       -0.4517517179
 Cd         0.1384275827       -0.0681636624        3.1344086500
 Cd         2.6424439289       -0.6635589833        6.8958902787
 Cd        -4.1540767547       -0.5351495059       -6.9611286691
 Cd        -2.2031787938       -1.8490953547       -3.4900325454
 Cd         0.0358061429       -2.8474821131       -0.0250986164
 Cd         2.4397148432       -3.8215646067        3.5304618541
 Cd         4.5938385224       -4.2151978691        6.5946782715
 Cd        -2.6316977752       -4.5699703347       -6.0785411100
 Cd        -0.3609647205       -6.1210476398       -3.0631321546
 Cd         1.9864113821       -6.8523394224       -0.0374578728
 Cd         4.3578725442       -7.5050262190        3.0973944137
 Cd        -2.4320435917        8.2867344877       -1.2003594937
 Cd         0.1211451432        6.7911461237        2.0747733605
 Cd         2.2581002832        6.3879418790        5.9826237718
 Cd        -2.2740301814        5.5405520795       -4.1121268284
 Cd         0.1544587346        4.6148646014       -0.9823317745
 Cd         2.6165167984        3.7533648776        2.4610437205
 Cd         4.3939225641        2.5015289017        5.6447028592
 Cd        -2.3864647936        3.0937089909       -7.5398991217
 Cd        -0.1312620923        1.7709205898       -4.3474153627
 Cd         2.1531647407        0.8600277323       -0.9632008696
 Cd         4.3034745224       -0.4402569171        2.5248246441
 Cd         6.4920244327       -0.6517762600        6.0105000734
 Cd         0.4042471002       -0.5927820844       -7.0621373784
 Cd         2.1513060690       -1.8411018894       -3.9633305361
 Cd         4.1299751586       -2.9780171515       -0.5482324515
 Cd         6.9198193879       -3.7969716949        2.8855461300
 Cd         1.0695561840       -4.7691868566       -6.7906806233
 Cd         3.6506287984       -5.7625126156       -3.6177100207
 Cd         5.7329529442       -6.5640124806       -0.3327706520
 Cd         2.4551040425        8.1223073906       -1.1566157350
 Cd         4.4053530873        7.2897981073        1.7948253575
 Cd         2.3804048954        5.2452072133       -4.8087124380
 Cd         4.8189709819        4.7184601665       -1.4283941648
 Cd         6.7582329422        3.8401559226        2.0311405318
 Cd         2.6217807629        2.7829107104       -7.7033792606
 Cd         4.8493220687        1.7846773769       -4.5231404897
 Cd         6.7277109105        1.0650014011       -0.9631080431
 Cd         8.8867432733        0.4155761616        2.4348024186
 Cd         4.3617965519       -0.9226361667       -7.7309275033
 Cd         6.7427707597       -1.9756192136       -4.2012656071
 Cd         8.5291341193       -2.6208037403       -0.2527865102
 Se        -9.0548010033        0.2429058485        0.9183058301
 Se        -6.3727675751       -0.6564850065        4.4183140692
 Se        -3.9345227861       -1.3489375304        8.2965658259
 Se        -6.5831218331       -3.7425399747        1.3880688861
 Se        -4.5790751306       -4.2748586473        4.8597466797
 Se        -4.6122383806       -7.7766144291        1.5328324828
 Se        -6.6422902088        3.9855623477        0.4576742714
 Se        -4.0719674113        2.6208455428        3.9143086968
 Se        -1.6333088866        2.0117573604        7.9251569380
 Se        -6.7117179298        0.9829214294       -3.1654513706
 Se        -4.4070773330       -0.2111938325        0.3948903335
 Se        -2.0531255099       -1.1153384435        4.2593939237
 Se         0.4059992367       -1.5661544218        8.0650969504
 Se        -4.4160786438       -3.1300063633       -2.8046811641
 Se        -2.2374320046       -4.0915904537        0.9472088783
 Se         0.1530511906       -4.8127487687        4.4858100934
 Se        -2.4165626401       -7.4206443039       -2.0539457160
 Se        -0.0669382588       -7.8791682132        1.3095471715
 Se        -4.5521642465        7.5948473116       -0.0126241614
 Se        -1.8467836637        6.3633074615        3.5400977437
 Se         0.4037080330        5.8261587310        7.5859184004
 Se        -4.4660623439        4.5539709336       -3.3489525603
 Se        -2.0809809508        3.7152466591        0.3431752209
 Se         0.4982348500        2.6969944442        3.7286942548
 Se         2.7717974935        1.9958718618        7.6262311163
 Se        -4.6132097949        2.0747731065       -6.9049134818
 Se        -2.2788942797        0.8535174365       -3.1261038368
 Se         0.0145636616       -0.1632253835        0.3854020321
 Se         2.3129736284       -1.3189070447        3.9990281094
 Se         4.8631644110       -1.8843004765        7.7354310215
 Se        -2.0701954572       -1.9664201516       -6.4603831701
 Se        -0.0447126693       -3.1599400652       -2.8087884542
 Se         2.2323213061       -4.2314633000        0.7809396060
 Se         4.8362421235       -4.9531070783        4.0967238952
 Se        -0.7551485878       -6.2848549882       -5.8413947808
 Se         1.9250126402       -7.4790638982       -2.6076388526
 Se         4.2593614189       -8.3792187594        0.7363905049
 Se         0.0356373222        7.3686284953       -0.4913363219
 Se         2.3809288554        6.5252158349        3.1425002309
 Se         0.0437297575        4.4288289944       -3.5940107083
 Se         2.5163887280        3.6274394344       -0.0568686501
 Se         4.7727149708        2.4661720819        3.1253248728
 Se         0.0455184789        1.9299840063       -6.9705263377
 Se         2.2758357728        0.7648464946       -3.6570670435
 Se         4.3766607890       -0.2853676889       -0.0178218223
 Se         6.9677188580       -1.1294423752        3.5582290079
 Se         2.2370127601       -2.2681989301       -6.6837764234
 Se         4.3737433027       -3.1974912755       -3.2156655533
 Se         6.4331506010       -4.1116910016        0.4129526420
 Se         4.8515813219        7.5524195368       -0.7459282338
 Se         4.8774862552        4.5489887195       -4.0122564555
 Se         7.0856133164        3.5934795755       -0.6428918196
 Se         4.7817279344        1.5264431856       -7.5555471017
 Se         6.9185850889        0.6112209080       -3.7073664576
 Se         9.1068891431       -0.0626912667       -0.0923430490
  C         6.9966766584       -6.9498307733       -2.8612699808
  H         7.7649322095       -7.1224747738       -3.6684216540
  O         5.8440350071       -6.4672432033       -3.1400736822
  O         7.2886281824       -7.2741769872       -1.6936967945
  C         3.3950699171       -6.2673011341       -6.9491759939
  H         4.3444066225       -6.8936096686       -7.0753272229
  O         3.0188272106       -5.7908930430       -5.7820593617
  O         2.6177271248       -6.1689211139       -7.9239953560
  C         6.3106277661       -2.9078537612       -7.4910451767
  H         7.1299137504       -3.7048862282       -7.4466889051
  O         6.0085238481       -2.3181975700       -6.3474948843
  O         5.9393725100       -2.4742548294       -8.6124735053
  C         8.9774408668       -3.3708825946       -3.4296451620
  H         9.9250180562       -3.8774829974       -3.1826003730
  O         8.5682912229       -3.4148884769       -4.6046197348
  O         8.2717362018       -2.6967077310       -2.5200934735
  C         9.7980675721       -4.6251981265        2.1809952851
  H        10.6408655401       -5.3318691344        2.3887999993
  O         9.7471333190       -4.1805239475        0.9926217604
  O         9.0286565223       -4.5681476324        3.1870536963
  C        -2.8217283098       -8.8884308441        5.3598597801
  H        -2.4154187803       -9.9024293192        5.4343946394
  O        -1.9847593863       -7.9306471408        5.0423327830
  O        -4.0904589070       -8.7274429912        5.4044238019
  C         2.9969199184       -8.6916148424        5.2874278224
  H         2.6967725338       -9.0398269484        6.2934215078
  O         1.9993863424       -8.3578859060        4.5594360970
  O         4.2233540879       -8.6006872103        4.9156624569
  C         2.8793004579       -5.7053274814        8.2324219154
  H         2.3955873073       -6.3773024893        8.9303283437
  O         2.2190406662       -4.8088588160        7.6163567456
  O         4.1498264011       -5.9035049848        8.1536189253
  C        -2.5347114547       -5.9173487347        8.5219979782
  H        -2.0052498086       -6.7390725628        9.0096019785
  O        -1.9213887420       -5.2583608172        7.5983391885
  O        -3.6522405966       -5.5084333269        8.8927798088
  C        -6.8630665051        2.3027071482        7.3891968703
  H        -7.2086193538        3.3071349018        7.3885257928
  O        -5.6213415466        2.1591098784        7.5337176271
  O        -7.6695579648        1.3702755863        7.1999523843
  C        -4.1169988172        6.2827998615        7.2281848296
  H        -5.2418933127        6.2896177269        7.3832000201
  O        -3.5267073265        5.2290563148        6.7738427782
  O        -3.5910878272        7.4673317926        7.3180532807
  C        -6.2567397777        7.1462375983        4.0780951193
  H        -7.2111390447        7.1649409639        4.6689854642
  O        -5.8090428724        6.0479038825        3.6278960234
  O        -5.6128147950        8.2207475413        3.8487746417
  C        -9.2742135509        2.9617531110        4.4604792779
  H        -9.7855372140        3.8838940690        4.7760086716
  O        -8.0588357164        3.0118934493        4.1192860517
  O       -10.0811358402        1.9793053168        4.3922225731
  C        -9.6032751921       -3.5282176588        4.2551643212
  H       -10.5971720209       -3.6001750875        4.7566807035
  O        -9.3832814266       -2.7227835369        3.2942729278
  O        -8.6787040148       -4.3017393077        4.7630286441
  C        -5.4081383493       -6.0792297125       -6.1561900437
  H        -6.0546960796       -6.5859836395       -6.8890942905
  O        -5.3110613466       -6.5040984923       -4.9652582085
  O        -4.7984546063       -5.0927543827       -6.6853164669
  C        -7.4874910477       -7.2705665475       -1.8347952797
  H        -7.8388434959       -7.7173330376       -2.7530342297
  O        -6.3887577204       -6.5549911018       -1.8843228949
  O        -8.0717095211       -7.4409229819       -0.7458443150
  C        -9.2562722155       -3.4270003725       -2.1219739384
  H        -9.5270787848       -4.0663584857       -2.9594189931
  O        -8.1698322114       -2.7554092615       -2.2726955238
  O        -9.8242318015       -3.4939792066       -1.0092229288
  C        -6.7207076004       -1.5101482784       -7.0045964195
  H        -7.7450574417       -1.9674181007       -7.1698505571
  O        -6.3198216944       -1.2781267021       -5.7990676684
  O        -6.0633563459       -1.2634935001       -8.0155429493
  C        -1.9629045742        5.6954894485       -7.4853143688
  H        -1.7770888886        6.7764005651       -7.4923242406
  O        -2.4611780304        5.1867391881       -6.4087509998
  O        -1.7563849621        5.0404821075       -8.5283839087
  C        -1.7168903337        9.0075060878       -3.7839142903
  H        -1.3493405476        9.2660238074       -4.8465614694
  O        -1.7700486263        7.7195330442       -3.5246262132
  O        -1.9637494936        9.8895916429       -2.9408532604
  C         2.5062378103        8.6538850642       -4.1272906587
  H         2.7131102182        9.0638249498       -5.0476060874
  O         2.0944581080        7.4532815704       -4.0307020050
  O         2.6627500741        9.4111822422       -3.1552639350
  C         1.7411555917        5.3672425131       -8.1968646942
  H         1.4358383610        6.4416008070       -8.3632925476
  O         2.2781471790        5.0766158915       -7.0408151308
  O         1.5312407215        4.4833748138       -9.0175897764
  C         9.4768802893        2.6096273220        3.9000002567
  H         9.6131090334        3.4671477718        4.5843902861
  O         8.5280384271        2.7173556544        3.0492147999
  O        10.1885631771        1.5401679419        4.0331217653
  C         6.6326593846        7.0383032282        3.3282037774
  H         7.5082674956        7.1289998248        4.0070788575
  O         6.4944880165        6.1604448671        2.4465775617
  O         5.7955087639        7.9030162654        3.5813181564
  C         4.7447677160        5.8524822586        6.9353969411
  H         5.7085862008        5.7040540943        7.4370666698
  O         4.3285947655        4.9885530195        6.0815219167
  O         4.1457344157        6.9224259465        7.1372031477
  C         7.5603373849        1.7452810344        7.1878814399
  H         8.1158840311        2.6116602203        7.6593692779
  O         6.7458829538        2.0302318447        6.2244601444
  O         7.8435208968        0.5821620295        7.5895334229
     227
 i =        2, time =        2.000, E =       -11.1500546144
 Cd        -8.6169927327        0.4783033655        3.4767854849
 Cd        -5.8708041029       -0.2576457534        7.1136325849
 Cd        -8.4088794215       -2.1552025505        0.3836537724
 Cd        -6.8896852042       -3.2939079248        3.9621520183