     227
 i =        0, time =        0.000, E =       -39.6382490216
 Cd        -8.6216924880        0.4810107428        3.4775887729
 Cd        -5.8723589632       -0.2566559957        7.1151373767
 Cd        -8.4076147924       -2.1531404527        0.3867588804
 Cd        -6.8957642261       -3.2896665849        3.9600318291
 Cd        -3.6930098048       -3.6992689615        7.3819491709
 Cd        -6.4429261463       -6.2347087238        0.4622469067
 Cd        -4.3123952394       -6.8285875372        3.9039095072
 Cd        -6.1141073353        3.8626235599        2.9066844924
 Cd        -3.6048790416        2.8797284733        6.5917986711
 Cd        -6.7531255596        1.1841266196       -0.3182182747
 Cd        -4.0437606329        0.0729837467        3.0511954168
 Cd        -1.7753257667       -0.3121054857        6.8316599018
 Cd        -6.3661028473       -1.4630135273       -3.4383357626
 Cd        -4.3602814436       -3.1214810613       -0.1759283953
 Cd        -2.2424276819       -3.6242998489        3.6335413818
 Cd         0.1757294635       -3.9625201566        7.0364714760
 Cd        -4.2692200317       -5.9860442556       -3.0005266361
 Cd        -2.2482225396       -6.7972628816        0.6786391664
 Cd         0.0669003827       -7.3030327295        3.8545421700
 Cd        -4.0792754193        7.4105475565        2.4175118797
 Cd        -1.6116442377        6.4880648240        6.2478272306
 Cd        -4.3308002626        4.8127262164       -0.6762739309
 Cd        -1.8326132452        3.6694977750        3.1598212265
 Cd         0.4939817277        3.1637060931        6.7202662426
 Cd        -4.5980154021        1.9988297698       -4.0880170010
 Cd        -2.1651194586        1.0165564496       -0.4536921834
 Cd         0.1376109507       -0.0659106884        3.1336818174
 Cd         2.6419074521       -0.6636939286        6.8958319365
 Cd        -4.1515129292       -0.5348426091       -6.9620217917
 Cd        -2.2012490343       -1.8491984656       -3.4894107829
 Cd         0.0359311218       -2.8494155653       -0.0264680683
 Cd         2.4407298775       -3.8224684908        3.5289587884
 Cd         4.5907434619       -4.2169180472        6.5928471603
 Cd        -2.6321953796       -4.5685798778       -6.0773989300
 Cd        -0.3638438279       -6.1221236347       -3.0620735359
 Cd         1.9882729153       -6.8506852632       -0.0376753302
 Cd         4.3604701588       -7.5063202656        3.0981086138
 Cd        -2.4313710890        8.2839908015       -1.2010761441
 Cd         0.1210964618        6.7915494583        2.0748938605
 Cd         2.2602783261        6.3879934074        5.9824457591
 Cd        -2.2743307721        5.5403016700       -4.1096429978
 Cd         0.1552258413        4.6164378819       -0.9814446932
 Cd         2.6173372932        3.7540356816        2.4616712460
 Cd         4.3934694910        2.5024270436        5.6448470259
 Cd        -2.3839877703        3.0961459608       -7.5397423510
 Cd        -0.1308699873        1.7716472388       -4.3458913396
 Cd         2.1522040622        0.8595996928       -0.9600505658
 Cd         4.3027041934       -0.4425155449        2.5248589789
 Cd         6.4943132815       -0.6514444341        6.0110723312
 Cd         0.4032906214       -0.5920449882       -7.0625722312
 Cd         2.1504065746       -1.8410095193       -3.9631978812
 Cd         4.1282053355       -2.9764966895       -0.5499119195
 Cd         6.9189885741       -3.8001688729        2.8840486736
 Cd         1.0693858855       -4.7693596381       -6.7909688629
 Cd         3.6529341800       -5.7620820022       -3.6150795142
 Cd         5.7341856059       -6.5625995016       -0.3323817960
 Cd         2.4532379782        8.1225833618       -1.1556872380
 Cd         4.4025673150        7.2904811152        1.7928276254
 Cd         2.3800547108        5.2453457502       -4.8107637235
 Cd         4.8184663347        4.7191125514       -1.4277792117
 Cd         6.7589411702        3.8390778732        2.0295448973
 Cd         2.6210634084        2.7844913241       -7.7035228004
 Cd         4.8495943395        1.7843685348       -4.5225056138
 Cd         6.7261500983        1.0662237140       -0.9642295531
 Cd         8.8881450478        0.4141445330        2.4369093904
 Cd         4.3615782352       -0.9213178924       -7.7328888960
 Cd         6.7438649008       -1.9767569930       -4.2031112584
 Cd         8.5272445020       -2.6218905711       -0.2551455218
 Se        -9.0557725106        0.2424574140        0.9180313808
 Se        -6.3745872764       -0.6570220647        4.4225742627
 Se        -3.9358548519       -1.3506397678        8.2925868769
 Se        -6.5830028390       -3.7408669090        1.3890860046
 Se        -4.5802302415       -4.2716541219        4.8585926421
 Se        -4.6110671623       -7.7792240778        1.5343213278
 Se        -6.6407812351        3.9866809498        0.4586064126
 Se        -4.0705866514        2.6241591830        3.9150270775
 Se        -1.6315747320        2.0143859544        7.9219454430
 Se        -6.7106235468        0.9827493806       -3.1628202938
 Se        -4.4077684895       -0.2106461950        0.3970531668
 Se        -2.0534879979       -1.1190641497        4.2604482105
 Se         0.4069246601       -1.5676855049        8.0617057342
 Se        -4.4126107232       -3.1307459794       -2.8028288282
 Se        -2.2371864822       -4.0884616040        0.9473336128
 Se         0.1541797359       -4.8148952714        4.4843326207
 Se        -2.4147106009       -7.4199706225       -2.0529393442
 Se        -0.0662571417       -7.8800811154        1.3078284855
 Se        -4.5519687636        7.5920037884       -0.0122560791
 Se        -1.8482840651        6.3647212661        3.5390459072
 Se         0.4006735392        5.8241498358        7.5878867146
 Se        -4.4655945585        4.5529209660       -3.3484418515
 Se        -2.0798083538        3.7153034916        0.3451575142
 Se         0.4973892782        2.6967113851        3.7286137790
 Se         2.7724753484        1.9958260876        7.6298945277
 Se        -4.6126224962        2.0736182894       -6.9031574659
 Se        -2.2770211290        0.8531533747       -3.1284312065
 Se         0.0138865169       -0.1636477002        0.3858468104
 Se         2.3115473387       -1.3198431962        4.0017354986
 Se         4.8624545925       -1.8855864388        7.7371297607
 Se        -2.0700877949       -1.9675257511       -6.4603372509
 Se        -0.0447057629       -3.1582708631       -2.8090856920
 Se         2.2343306950       -4.2299664240        0.7817840723
 Se         4.8342987615       -4.9516929708        4.0974643468
 Se        -0.7556003326       -6.2829108386       -5.8406699955
 Se         1.9243057511       -7.4784768035       -2.6074198353
 Se         4.2543989663       -8.3809591814        0.7363809319
 Se         0.0386925703        7.3677075300       -0.4939635450
 Se         2.3791568525        6.5289221229        3.1400383851
 Se         0.0465974103        4.4270318221       -3.5936563407
 Se         2.5167269427        3.6273521599       -0.0581806204
 Se         4.7705604635        2.4670139639        3.1233546104
 Se         0.0435933033        1.9323944164       -6.9695738842
 Se         2.2733127965        0.7623703678       -3.6584263160
 Se         4.3816175435       -0.2841549253       -0.0177063702
 Se         6.9670500347       -1.1290204494        3.5565582379
 Se         2.2410869402       -2.2702007814       -6.6798205275
 Se         4.3723294721       -3.1971869108       -3.2130677403
 Se         6.4331938555       -4.1098532443        0.4136420186
 Se         4.8503033307        7.5509093293       -0.7463548497
 Se         4.8776288797        4.5477652435       -4.0091414448
 Se         7.0830986217        3.5950723552       -0.6434567968
 Se         4.7810064642        1.5273410534       -7.5566303287
 Se         6.9188050062        0.6130038217       -3.7081238627
 Se         9.1066871843       -0.0609359671       -0.0919647969
  C         6.9955771113       -6.9586634775       -2.8583426301
  H         7.7780160969       -7.1271873265       -3.6573399650
  O         5.8389952916       -6.4652991204       -3.1445809228
  O         7.2920676004       -7.2683568805       -1.6893132711
  C         3.3939431960       -6.2668607509       -6.9513074648
  H         4.3245440932       -6.8689211647       -7.0591687882
  O         3.0202466073       -5.7860511295       -5.7843136273
  O         2.6220129789       -6.1746538788       -7.9242101403
  C         6.3116555909       -2.9071154185       -7.4921130606
  H         7.0978863851       -3.7212906458       -7.4285512081
  O         6.0096715894       -2.3219711192       -6.3505932827
  O         5.9403243477       -2.4750431756       -8.6116316973
  C         8.9837561036       -3.3697375837       -3.4349055328
  H         9.9249943929       -3.8864043165       -3.1840078659
  O         8.5659407989       -3.4209184445       -4.6048832464
  O         8.2714489672       -2.6971151254       -2.5207012617
  C         9.7902109758       -4.6282247391        2.1768529346
  H        10.6284324694       -5.3337138149        2.3552924638
  O         9.7484501532       -4.1824896055        0.9942458601
  O         9.0219926648       -4.5705851174        3.1873629795
  C        -2.8252708508       -8.8894178348        5.3653894160
  H        -2.3915771747       -9.8892286280        5.4446685031
  O        -1.9808601030       -7.9304545651        5.0436955975
  O        -4.0908415257       -8.7280019527        5.4030844137
  C         3.0047406823       -8.6887063298        5.2919739424
  H         2.6853413808       -9.0312323512        6.2714246943
  O         1.9985977812       -8.3553887881        4.5599054594
  O         4.2197147413       -8.6069092298        4.9235206312
  C         2.8732291572       -5.7090624943        8.2322507888
  H         2.4095730423       -6.3582442170        8.9295273658
  O         2.2236878889       -4.8031284854        7.6183804854
  O         4.1525405945       -5.8988692439        8.1468427445
  C        -2.5324052264       -5.9090323801        8.5168983878
  H        -2.0058427467       -6.7599986745        9.0204193621
  O        -1.9189018681       -5.2527647032        7.5983339134
  O        -3.6521974131       -5.4981014961        8.8936623702
  C        -6.8661340661        2.3082426882        7.3884767521
  H        -7.2433530482        3.2983326111        7.3747512577
  O        -5.6189307919        2.1553364867        7.5292857639
  O        -7.6694328727        1.3672322100        7.2032576312
  C        -4.1128935570        6.2776012356        7.2258109093
  H        -5.2184092536        6.2949225170        7.4003980339
  O        -3.5215502414        5.2331222329        6.7794929280
  O        -3.5956064510        7.4679880815        7.3184340370
  C        -6.2584500423        7.1467273309        4.0778865765
  H        -7.2018864753        7.1620259062        4.6862261037
  O        -5.8042352338        6.0508881806        3.6277903665
  O        -5.6141473350        8.2227071687        3.8530055117
  C        -9.2670155991        2.9624473135        4.4549609073
  H        -9.7760873251        3.8307467380        4.7753730710
  O        -8.0580447847        3.0137717908        4.1153681461
  O       -10.0869615960        1.9755230626        4.3964141791
  C        -9.5997958208       -3.5202239981        4.2555074891
  H       -10.6284324694       -3.6062117458        4.7363993397
  O        -9.3836198173       -2.7271085544        3.2939504316
  O        -8.6749593009       -4.3055307223        4.7674147240
  C        -5.4063829718       -6.0836320759       -6.1576393485
  H        -6.0390997038       -6.5934387315       -6.8768176703
  O        -5.3157147411       -6.5042627408       -4.9638375967
  O        -4.7997118332       -5.0931497246       -6.6842330004
  C        -7.4812021438       -7.2683192216       -1.8337008205
  H        -7.8430239833       -7.7214409635       -2.7403108931
  O        -6.3847231004       -6.5596142310       -1.8855223803
  O        -8.0870004405       -7.4369608581       -0.7449951352
  C        -9.2637717352       -3.4248031045       -2.1287629167
  H        -9.5435102925       -4.0726156799       -2.9624854104
  O        -8.1685743898       -2.7562864935       -2.2769679175
  O        -9.8293124780       -3.4993302663       -1.0042472880
  C        -6.7198117275       -1.5155721631       -7.0057360974
  H        -7.7266400310       -1.9701098143       -7.1795729881
  O        -6.3208037730       -1.2812141421       -5.7891801227
  O        -6.0546670581       -1.2647410752       -8.0219575549
  C        -1.9610306020        5.6962737072       -7.4797868569
  H        -1.8068881661        6.7616764611       -7.4798700689
  O        -2.4613788677        5.1953402046       -6.4147373301
  O        -1.7592038190        5.0404242691       -8.5376948407
  C        -1.7153677193        9.0065729983       -3.7807068554
  H        -1.3518565997        9.2891789052       -4.8285272378
  O        -1.7735635219        7.7204009534       -3.5311974415
  O        -1.9589811591        9.8892286280       -2.9296575010
  C         2.5176986766        8.6527359013       -4.1276241396
  H         2.7356319561        9.0838176512       -5.0545617483
  O         2.0941304229        7.4607563111       -4.0382054964
  O         2.6632020791        9.4136986823       -3.1567247192
  C         1.7405814703        5.3615037054       -8.2026998584
  H         1.4592813282        6.4433815072       -8.3446733349
  O         2.2712544771        5.0744229803       -7.0359036782
  O         1.5374971892        4.4786315137       -9.0204193621
  C         9.4791869119        2.6134878200        3.9079418032
  H         9.6264681644        3.4611325178        4.5867541287
  O         8.5294682966        2.7206869475        3.0468687327
  O        10.1884170796        1.5361363159        4.0354546634
  C         6.6320899766        7.0427804887        3.3240585285
  H         7.5183451153        7.1103565644        4.0025867163
  O         6.4921259472        6.1579139584        2.4473334656
  O         5.8014508194        7.8970951585        3.5804466065
  C         4.7468288793        5.8510846562        6.9391041765
  H         5.6837062732        5.7110173508        7.4566454645
  O         4.3315486404        4.9881730889        6.0840680113
  O         4.1390624477        6.9214380767        7.1338855679
  C         7.5642974957        1.7429307679        7.1823006621
  H         8.1116275708        2.6102062210        7.6466333920
  O         6.7423080014        2.0330978891        6.2208765696
  O         7.8434776238        0.5800715711        7.5931108165
     227
 i =        1, time =        1.000, E =       -39.6520445277
 Cd        -8.6193593152        0.4797004740        3.4771559425
 Cd        -5.8715222550       -0.2571372006        7.1144247480
 Cd        -8.4082776898       -2.1541428374        0.3852241811
 Cd        -6.8927608584       -3.2918178534        3.9610844414
 Cd        -3.6901762835       -3.7004197516        7.3824618199
 Cd        -6.4420049015       -6.2358139600        0.4642203545
 Cd        -4.3123502411       -6.8296987755        3.9052256896
 Cd        -6.1164249165        3.8609563957        2.9055634584
 Cd        -3.6066536152        2.8812508716        6.5904902045
 Cd        -6.7534795231        1.1872661446       -0.3192433313
 Cd        -4.0444785154        0.0755246742        3.0502221807
 Cd        -1.7741680787       -0.3125633687        6.8336989146
 Cd        -6.3661523830       -1.4623911098       -3.4402063355
 Cd        -4.3613590891       -3.1217916459       -0.1745445065
 Cd        -2.2426324276       -3.6215529122        3.6336440029
 Cd         0.1787503753       -3.9616018647        7.0369870986
 Cd        -4.2694251695       -5.9883219086       -2.9988848179
 Cd        -2.2486787721       -6.7967076588        0.6791346297
 Cd         0.0678047845       -7.3030250125        3.8542401131
 Cd        -4.0804066762        7.4119299044        2.4182651732
 Cd        -1.6108341314        6.4879013361        6.2510492773
 Cd        -4.3326189823        4.8128214599       -0.6769949039
 Cd        -1.8304383557        3.6696094724        3.1589525283
 Cd         0.4898107295        3.1633012997        6.7206494227
 Cd        -4.5997413900        2.0001643753       -4.0890087621
 Cd        -2.1629406717        1.0181300514       -0.4517866071
 Cd         0.1384501502       -0.0681886326        3.1344659053
 Cd         2.6424296281       -0.6635628384        6.8960303267
 Cd        -4.1541833132       -0.5351613352       -6.9611462322
 Cd        -2.2032088704       -1.8491187842       -3.4900296626
 Cd         0.0358080971       -2.8475582232       -0.0251065903
 Cd         2.4397040938       -3.8215546551        3.5304836858
 Cd         4.5938089845       -4.2152324793        6.5947499706
 Cd        -2.6317255546       -4.5700338370       -6.0785899221
 Cd        -0.3609683598       -6.1211878361       -3.0631650988
 Cd         1.9863840583       -6.8524396174       -0.0374808129
 Cd         4.3578359672       -7.5051392317        3.0974511549
 Cd        -2.4320719790        8.2867317711       -1.2004341788
 Cd         0.1211457894        6.7911644707        2.0748331907
 Cd         2.2581875494        6.3879217343        5.9827629215
 Cd        -2.2740655745        5.5405629898       -4.1121690583
 Cd         0.1544509196        4.6149018959       -0.9824066591
 Cd         2.6165572714        3.7533242025        2.4609957447
 Cd         4.3939833724        2.5015842089        5.6447234811
 Cd        -2.3865199299        3.0938254963       -7.5398755332
 Cd        -0.1312667757        1.7709882652       -4.3474504454
 Cd         2.1532532756        0.8600307748       -0.9632349104
 Cd         4.3035105857       -0.4402317416        2.5247734551
 Cd         6.4920896974       -0.6517421916        6.0105199658
 Cd         0.4042809390       -0.5927860706       -7.0621301221
 Cd         2.1513853159       -1.8411206720       -3.9633710707
 Cd         4.1300497800       -2.9780459090       -0.5482554530
 Cd         6.9198568990       -3.7969954696        2.8854894607
 Cd         1.0696550266       -4.7693117535       -6.7906447023
 Cd         3.6506901551       -5.7625721371       -3.6177792309
 Cd         5.7330501404       -6.5640880361       -0.3328491009
 Cd         2.4551653028        8.1223067141       -1.1567298635
 Cd         4.4054387249        7.2897831069        1.7948771989
 Cd         2.3804213138        5.2452907608       -4.8087627334
 Cd         4.8190699999        4.7184757050       -1.4284820419
 Cd         6.7582885633        3.8401567525        2.0311617959
 Cd         2.6218249332        2.7829847266       -7.7033927698
 Cd         4.8494574364        1.7846783961       -4.5231141762
 Cd         6.7278162353        1.0650618289       -0.9631651140
 Cd         8.8867595155        0.4156298791        2.4347888474
 Cd         4.3619122645       -0.9226281288       -7.7308864424
 Cd         6.7428410132       -1.9756513087       -4.2012870297
 Cd         8.5291445336       -2.6208254420       -0.2528574957
 Se        -9.0545669165        0.2427413887        0.9183728698
 Se        -6.3727033775       -0.6565539479        4.4182751279
 Se        -3.9345852289       -1.3490276518        8.2962878925
 Se        -6.5830687418       -3.7425239010        1.3880641110
 Se        -4.5789921983       -4.2748331362        4.8596780741
 Se        -4.6122015264       -7.7763205448        1.5329085614
 Se        -6.6420566984        3.9854785563        0.4577893023
 Se        -4.0718285931        2.6208362602        3.9142173911
 Se        -1.6333614933        2.0117043166        7.9247936309
 Se        -6.7114453719        0.9827668035       -3.1654194979
 Se        -4.4069840246       -0.2111644357        0.3949524070
 Se        -2.0531110191       -1.1153483459        4.2593050511
 Se         0.4060000108       -1.5662331486        8.0648437708
 Se        -4.4159594002       -3.1298973294       -2.8045917282
 Se        -2.2374556325       -4.0915339273        0.9471970335
 Se         0.1530750833       -4.8127192143        4.4857386565
 Se        -2.4165843054       -7.4203303171       -2.0539823194
 Se        -0.0669960024       -7.8788779235        1.3095906553
 Se        -4.5518412196        7.5947814682       -0.0125017240
 Se        -1.8466011692        6.3632706372        3.5399600700
 Se         0.4036753321        5.8261770785        7.5855593320
 Se        -4.4658098299        4.5538959585       -3.3489076804
 Se        -2.0809155336        3.7152325261        0.3431383965
 Se         0.4981462239        2.6970378487        3.7286047295
 Se         2.7717510750        1.9958136333        7.6259145348
 Se        -4.6129191732        2.0746436630       -6.9048639166
 Se        -2.2788005115        0.8534519433       -3.1260951313
 Se         0.0145399465       -0.1632341920        0.3853884210
 Se         2.3129935279       -1.3189299374        3.9988976887
 Se         4.8631035980       -1.8843358254        7.7351292236
 Se        -2.0702467110       -1.9663819801       -6.4603115488
 Se        -0.0447731928       -3.1598223263       -2.8087659076
 Se         2.2323125405       -4.2313539164        0.7809017366
 Se         4.8361948283       -4.9529888017        4.0967173182
 Se        -0.7551620929       -6.2845247360       -5.8413776769
 Se         1.9249802076       -7.4787605702       -2.6075207810
 Se         4.2593933301       -8.3789171909        0.7365099687
 Se         0.0357040918        7.3685171114       -0.4911603964
 Se         2.3808121102        6.5252107199        3.1423350663
 Se         0.0436931045        4.4287307869       -3.5939270675
 Se         2.5162880333        3.6274603188       -0.0567545042
 Se         4.7725842420        2.4662072424        3.1253554225
 Se         0.0455210942        1.9297259764       -6.9703639589
 Se         2.2756974553        0.7647544687       -3.6569805374
 Se         4.3765359635       -0.2853940352       -0.0177029988
 Se         6.9676165311       -1.1294772091        3.5582945354
 Se         2.2367907876       -2.2679980505       -6.6837231817
 Se         4.3735535305       -3.1974415893       -3.2155361118
 Se         6.4330587249       -4.1116476380        0.4131045887
 Se         4.8512587982        7.5523663451       -0.7457465245
 Se         4.8772955736        4.5488861282       -4.0120965423
 Se         7.0853685319        3.5933522700       -0.6427875618
 Se         4.7814238341        1.5263198574       -7.5555228718
 Se         6.9183022678        0.6112091585       -3.7073014487
 Se         9.1067124254       -0.0627931472       -0.0921648792
  C         6.9966473797       -6.9496708020       -2.8612773934
  H         7.7649322095       -7.1224747738       -3.6684216540
  O         5.8436231518       -6.4671033497       -3.1399230901
  O         7.2880011233       -7.2738112609       -1.6931971678
  C         3.3951411400       -6.2672135642       -6.9490894179
  H         4.3444066225       -6.8936096686       -7.0753272229
  O         3.0186721681       -5.7905875460       -5.7816123413
  O         2.6174222869       -6.1685430562       -7.9237382320
  C         6.3106246704       -2.9079074340       -7.4908654891
  H         7.1299137504       -3.7048862282       -7.4466889051
  O         6.0084612518       -2.3179621598       -6.3472042106
  O         5.9389891000       -2.4739345938       -8.6122279417
  C         8.9773124775       -3.3709149465       -3.4295822521
  H         9.9250180562       -3.8774829974       -3.1826003730
  O         8.5678639248       -3.4145981374       -4.6044487641
  O         8.2714225152       -2.6966687250       -2.5198496123
  C         9.7979461921       -4.6251504952        2.1809471365
  H        10.6408655401       -5.3318691344        2.3887999993
  O         9.7467540212       -4.1801393314        0.9924722777
  O         9.0279846533       -4.5678578699        3.1869455173
  C        -2.8216799088       -8.8883038240        5.3598606147
  H        -2.4154187803       -9.9024293192        5.4343946394
  O        -1.9846693129       -7.9304007488        5.0420911985
  O        -4.0904215857       -8.7270033803        5.4041589285
  C         2.9968864039       -8.6914808665        5.2874485730
  H         2.6967725338       -9.0398269484        6.2934215078
  O         1.9991549212       -8.3575123775        4.5592442547
  O         4.2233608596       -8.6001075191        4.9148194711
  C         2.8792328647       -5.7053362684        8.2323182509
  H         2.3955873073       -6.3773024893        8.9303283437
  O         2.2187827540       -4.8086255219        7.6159610787
  O         4.1498448173       -5.9031186721        8.1531419924
  C        -2.5346802041       -5.9173640058        8.5218434988
  H        -2.0052498086       -6.7390725628        9.0096019785
  O        -1.9214937321       -5.2578569244        7.5982113991
  O        -3.6522226505       -5.5080261763        8.8923524563
  C        -6.8630400900        2.3027279070        7.3890206759
  H        -7.2086193538        3.3071349018        7.3885257928
  O        -5.6210048361        2.1589089327        7.5333764839
  O        -7.6691447240        1.3699891111        7.1999016026
  C        -4.1170406135        6.2827205685        7.2280625349
  H        -5.2418933127        6.2896177269        7.3832000201
  O        -3.5263185362        5.2288716464        6.7735989941
  O        -3.5907190781        7.4671060328        7.3177531523
  C        -6.2566795418        7.1461287448        4.0781404076
  H        -7.2111390447        7.1649409639        4.6689854642
  O        -5.8087877789        6.0476610285        3.6276785920
  O        -5.6122399003        8.2203725391        3.8483634018
  C        -9.2740762621        2.9616758006        4.4605211745
  H        -9.7855372140        3.8838940690        4.7760086716
  O        -8.0585513623        3.0118007686        4.1191163322
  O       -10.0806597524        1.9788844283        4.3920251031
  C        -9.6031812417       -3.5281645354        4.2551084828
  H       -10.5971720209       -3.6001750875        4.7566807035
  O        -9.3828610617       -2.7227027578        3.2942876003
  O        -8.6780582239       -4.3013391164        4.7627441710
  C        -5.4081402341       -6.0791384044       -6.1560925391
  H        -6.0546960796       -6.5859836395       -6.8890942905
  O        -5.3106711144       -6.5037744660       -4.9647977636
  O        -4.7979355785       -5.0925753529       -6.6850588568
  C        -7.4874320054       -7.2704198793       -1.8348201101
  H        -7.8388434959       -7.7173330376       -2.7530342297
  O        -6.3885015297       -6.5547188295       -1.8840025332
  O        -8.0712998538       -7.4405796445       -0.7455637601
  C        -9.2561379610       -3.4270510667       -2.1219308741
  H        -9.5270787848       -4.0663584857       -2.9594189931
  O        -8.1695788048       -2.7552423734       -2.2725623390
  O        -9.8238654115       -3.4937512824       -1.0089967557
  C        -6.7206535261       -1.5102356323       -7.0044998170
  H        -7.7450574417       -1.9674181007       -7.1698505571
  O        -6.3194302663       -1.2781946663       -5.7987386841
  O        -6.0628200683       -1.2633977406       -8.0152077388
  C        -1.9628050744        5.6954666312       -7.4852206716
  H        -1.7770888886        6.7764005651       -7.4923242406
  O        -2.4609916319        5.1864208226       -6.4085220802
  O        -1.7565321041        5.0398853203       -8.5279750071
  C        -1.7167923469        9.0073970767       -3.7839249044
  H        -1.3493405476        9.2660238074       -4.8465614694
  O        -1.7702615894        7.7191324682       -3.5244168517
  O        -1.9638163496        9.8891745078       -2.9404687566
  C         2.5061522927        8.6537904967       -4.1272925510
  H         2.7131102182        9.0638249498       -5.0476060874
  O         2.0944659061        7.4528976646       -4.0306979934
  O         2.6626104130        9.4109178019       -3.1548690262
  C         1.7410400008        5.3672297663       -8.1967740656
  H         1.4358383610        6.4416008070       -8.3632925476
  O         2.2781535662        5.0762303586       -7.0402447892
  O         1.5314959638        4.4830132827       -9.0172233227
  C         9.4767142066        2.6096080227        3.9000457835
  H         9.6131090334        3.4671477718        4.5843902861
  O         8.5277114621        2.7172029087        3.0489767485
  O        10.1881984532        1.5399098495        4.0327412232
  C         6.6325978273        7.0381773103        3.3282572748
  H         7.5082674956        7.1289998248        4.0070788575
  O         6.4941290681        6.1601346949        2.4465030577
  O         5.7951301946        7.9027812952        3.5809115822
  C         4.7448032854        5.8524263838        6.9352738994
  H         5.7085862008        5.7040540943        7.4370666698
  O         4.3282785494        4.9884239763        6.0813268523
  O         4.1452044084        6.9222393037        7.1367550961
  C         7.5603079013        1.7452871373        7.1877410200
  H         8.1158840311        2.6116602203        7.6593692779
  O         6.7455454976        2.0300382171        6.2243098126
  O         7.8432628266        0.5819562771        7.5891152203
     227
 i =        2, time =        2.000, E =       -39.6801357411
 Cd        -8.6170642541        0.4785503444        3.4767110781
 Cd        -5.8707107054       -0.2574236493        7.1137632959
 Cd        -8.4091141103       -2.1552081982        0.3836303412
 Cd        -6.8898068875       -3.2939752193        3.9620868350