     227
 i =        0, time =        0.000, E =        -8.5698389560
 Cd        -8.6216924880        0.4810107428        3.4775887729
 Cd        -5.8723589632       -0.2566559957        7.1151373767
 Cd        -8.4076147924       -2.1531404527        0.3867588804
 Cd        -6.8957642261       -3.2896665849        3.9600318291
 Cd        -3.6930098048       -3.6992689615        7.3819491709
 Cd        -6.4429261463       -6.2347087238        0.4622469067
 Cd        -4.3123952394       -6.8285875372        3.9039095072
 Cd        -6.1141073353        3.8626235599        2.9066844924
 Cd        -3.6048790416        2.8797284733        6.5917986711
 Cd        -6.7531255596        1.1841266196       -0.3182182747
 Cd        -4.0437606329        0.0729837467        3.0511954168
 Cd        -1.7753257667       -0.3121054857        6.8316599018
 Cd        -6.3661028473       -1.4630135273       -3.4383357626
 Cd        -4.3602814436       -3.1214810613       -0.1759283953
 Cd        -2.2424276819       -3.6242998489        3.6335413818
 Cd         0.1757294635       -3.9625201566        7.0364714760
 Cd        -4.2692200317       -5.9860442556       -3.0005266361
 Cd        -2.2482225396       -6.7972628816        0.6786391664
 Cd         0.0669003827       -7.3030327295        3.8545421700
 Cd        -4.0792754193        7.4105475565        2.4175118797
 Cd        -1.6116442377        6.4880648240        6.2478272306
 Cd        -4.3308002626        4.8127262164       -0.6762739309
 Cd        -1.8326132452        3.6694977750        3.1598212265
 Cd         0.4939817277        3.1637060931        6.7202662426
 Cd        -4.5980154021        1.9988297698       -4.0880170010
 Cd        -2.1651194586        1.0165564496       -0.4536921834
 Cd         0.1376109507       -0.0659106884        3.1336818174
 Cd         2.6419074521       -0.6636939286        6.8958319365
 Cd        -4.1515129292       -0.5348426091       -6.9620217917
 Cd        -2.2012490343       -1.8491984656       -3.4894107829
 Cd         0.0359311218       -2.8494155653       -0.0264680683
 Cd         2.4407298775       -3.8224684908        3.5289587884
 Cd         4.5907434619       -4.2169180472        6.5928471603
 Cd        -2.6321953796       -4.5685798778       -6.0773989300
 Cd        -0.3638438279       -6.1221236347       -3.0620735359
 Cd         1.9882729153       -6.8506852632       -0.0376753302
 Cd         4.3604701588       -7.5063202656        3.0981086138
 Cd        -2.4313710890        8.2839908015       -1.2010761441
 Cd         0.1210964618        6.7915494583        2.0748938605
 Cd         2.2602783261        6.3879934074        5.9824457591
 Cd        -2.2743307721        5.5403016700       -4.1096429978
 Cd         0.1552258413        4.6164378819       -0.9814446932
 Cd         2.6173372932        3.7540356816        2.4616712460
 Cd         4.3934694910        2.5024270436        5.6448470259
 Cd        -2.3839877703        3.0961459608       -7.5397423510
 Cd        -0.1308699873        1.7716472388       -4.3458913396
 Cd         2.1522040622        0.8595996928       -0.9600505658
 Cd         4.3027041934       -0.4425155449        2.5248589789
 Cd         6.4943132815       -0.6514444341        6.0110723312
 Cd         0.4032906214       -0.5920449882       -7.0625722312
 Cd         2.1504065746       -1.8410095193       -3.9631978812
 Cd         4.1282053355       -2.9764966895       -0.5499119195
 Cd         6.9189885741       -3.8001688729        2.8840486736
 Cd         1.0693858855       -4.7693596381       -6.7909688629
 Cd         3.6529341800       -5.7620820022       -3.6150795142
 Cd         5.7341856059       -6.5625995016       -0.3323817960
 Cd         2.4532379782        8.1225833618       -1.1556872380
 Cd         4.4025673150        7.2904811152        1.7928276254
 Cd         2.3800547108        5.2453457502       -4.8107637235
 Cd         4.8184663347        4.7191125514       -1.4277792117
 Cd         6.7589411702        3.8390778732        2.0295448973
 Cd         2.6210634084        2.7844913241       -7.7035228004
 Cd         4.8495943395        1.7843685348       -4.5225056138
 Cd         6.7261500983        1.0662237140       -0.9642295531
 Cd         8.8881450478        0.4141445330        2.4369093904
 Cd         4.3615782352       -0.9213178924       -7.7328888960
 Cd         6.7438649008       -1.9767569930       -4.2031112584
 Cd         8.5272445020       -2.6218905711       -0.2551455218
 Se        -9.0557725106        0.2424574140        0.9180313808
 Se        -6.3745872764       -0.6570220647        4.4225742627
 Se        -3.9358548519       -1.3506397678        8.2925868769
 Se        -6.5830028390       -3.7408669090        1.3890860046
 Se        -4.5802302415       -4.2716541219        4.8585926421
 Se        -4.6110671623       -7.7792240778        1.5343213278
 Se        -6.6407812351        3.9866809498        0.4586064126
 Se        -4.0705866514        2.6241591830        3.9150270775
 Se        -1.6315747320        2.0143859544        7.9219454430
 Se        -6.7106235468        0.9827493806       -3.1628202938
 Se        -4.4077684895       -0.2106461950        0.3970531668
 Se        -2.0534879979       -1.1190641497        4.2604482105
 Se         0.4069246601       -1.5676855049        8.0617057342
 Se        -4.4126107232       -3.1307459794       -2.8028288282
 Se        -2.2371864822       -4.0884616040        0.9473336128
 Se         0.1541797359       -4.8148952714        4.4843326207
 Se        -2.4147106009       -7.4199706225       -2.0529393442
 Se        -0.0662571417       -7.8800811154        1.3078284855
 Se        -4.5519687636        7.5920037884       -0.0122560791
 Se        -1.8482840651        6.3647212661        3.5390459072
 Se         0.4006735392        5.8241498358        7.5878867146
 Se        -4.4655945585        4.5529209660       -3.3484418515
 Se        -2.0798083538        3.7153034916        0.3451575142
 Se         0.4973892782        2.6967113851        3.7286137790
 Se         2.7724753484        1.9958260876        7.6298945277
 Se        -4.6126224962        2.0736182894       -6.9031574659
 Se        -2.2770211290        0.8531533747       -3.1284312065
 Se         0.0138865169       -0.1636477002        0.3858468104
 Se         2.3115473387       -1.3198431962        4.0017354986
 Se         4.8624545925       -1.8855864388        7.7371297607
 Se        -2.0700877949       -1.9675257511       -6.4603372509
 Se        -0.0447057629       -3.1582708631       -2.8090856920
 Se         2.2343306950       -4.2299664240        0.7817840723
 Se         4.8342987615       -4.9516929708        4.0974643468
 Se        -0.7556003326       -6.2829108386       -5.8406699955
 Se         1.9243057511       -7.4784768035       -2.6074198353
 Se         4.2543989663       -8.3809591814        0.7363809319
 Se         0.0386925703        7.3677075300       -0.4939635450
 Se         2.3791568525        6.5289221229        3.1400383851
 Se         0.0465974103        4.4270318221       -3.5936563407
 Se         2.5167269427        3.6273521599       -0.0581806204
 Se         4.7705604635        2.4670139639        3.1233546104
 Se         0.0435933033        1.9323944164       -6.9695738842
 Se         2.2733127965        0.7623703678       -3.6584263160
 Se         4.3816175435       -0.2841549253       -0.0177063702
 Se         6.9670500347       -1.1290204494        3.5565582379
 Se         2.2410869402       -2.2702007814       -6.6798205275
 Se         4.3723294721       -3.1971869108       -3.2130677403
 Se         6.4331938555       -4.1098532443        0.4136420186
 Se         4.8503033307        7.5509093293       -0.7463548497
 Se         4.8776288797        4.5477652435       -4.0091414448
 Se         7.0830986217        3.5950723552       -0.6434567968
 Se         4.7810064642        1.5273410534       -7.5566303287
 Se         6.9188050062        0.6130038217       -3.7081238627
 Se         9.1066871843       -0.0609359671       -0.0919647969
  C         6.9955771113       -6.9586634775       -2.8583426301
  H         7.7780160969       -7.1271873265       -3.6573399650
  O         5.8389952916       -6.4652991204       -3.1445809228
  O         7.2920676004       -7.2683568805       -1.6893132711
  C         3.3939431960       -6.2668607509       -6.9513074648
  H         4.3245440932       -6.8689211647       -7.0591687882
  O         3.0202466073       -5.7860511295       -5.7843136273
  O         2.6220129789       -6.1746538788       -7.9242101403
  C         6.3116555909       -2.9071154185       -7.4921130606
  H         7.0978863851       -3.7212906458       -7.4285512081
  O         6.0096715894       -2.3219711192       -6.3505932827
  O         5.9403243477       -2.4750431756       -8.6116316973
  C         8.9837561036       -3.3697375837       -3.4349055328
  H         9.9249943929       -3.8864043165       -3.1840078659
  O         8.5659407989       -3.4209184445       -4.6048832464
  O         8.2714489672       -2.6971151254       -2.5207012617
  C         9.7902109758       -4.6282247391        2.1768529346
  H        10.6284324694       -5.3337138149        2.3552924638
  O         9.7484501532       -4.1824896055        0.9942458601
  O         9.0219926648       -4.5705851174        3.1873629795
  C        -2.8252708508       -8.8894178348        5.3653894160
  H        -2.3915771747       -9.8892286280        5.4446685031
  O        -1.9808601030       -7.9304545651        5.0436955975
  O        -4.0908415257       -8.7280019527        5.4030844137
  C         3.0047406823       -8.6887063298        5.2919739424
  H         2.6853413808       -9.0312323512        6.2714246943
  O         1.9985977812       -8.3553887881        4.5599054594
  O         4.2197147413       -8.6069092298        4.9235206312
  C         2.8732291572       -5.7090624943        8.2322507888
  H         2.4095730423       -6.3582442170        8.9295273658
  O         2.2236878889       -4.8031284854        7.6183804854
  O         4.1525405945       -5.8988692439        8.1468427445
  C        -2.5324052264       -5.9090323801        8.5168983878
  H        -2.0058427467       -6.7599986745        9.0204193621
  O        -1.9189018681       -5.2527647032        7.5983339134
  O        -3.6521974131       -5.4981014961        8.8936623702
  C        -6.8661340661        2.3082426882        7.3884767521
  H        -7.2433530482        3.2983326111        7.3747512577
  O        -5.6189307919        2.1553364867        7.5292857639
  O        -7.6694328727        1.3672322100        7.2032576312
  C        -4.1128935570        6.2776012356        7.2258109093
  H        -5.2184092536        6.2949225170        7.4003980339
  O        -3.5215502414        5.2331222329        6.7794929280
  O        -3.5956064510        7.4679880815        7.3184340370
  C        -6.2584500423        7.1467273309        4.0778865765
  H        -7.2018864753        7.1620259062        4.6862261037
  O        -5.8042352338        6.0508881806        3.6277903665
  O        -5.6141473350        8.2227071687        3.8530055117
  C        -9.2670155991        2.9624473135        4.4549609073
  H        -9.7760873251        3.8307467380        4.7753730710
  O        -8.0580447847        3.0137717908        4.1153681461
  O       -10.0869615960        1.9755230626        4.3964141791
  C        -9.5997958208       -3.5202239981        4.2555074891
  H       -10.6284324694       -3.6062117458        4.7363993397
  O        -9.3836198173       -2.7271085544        3.2939504316
  O        -8.6749593009       -4.3055307223        4.7674147240
  C        -5.4063829718       -6.0836320759       -6.1576393485
  H        -6.0390997038       -6.5934387315       -6.8768176703
  O        -5.3157147411       -6.5042627408       -4.9638375967
  O        -4.7997118332       -5.0931497246       -6.6842330004
  C        -7.4812021438       -7.2683192216       -1.8337008205
  H        -7.8430239833       -7.7214409635       -2.7403108931
  O        -6.3847231004       -6.5596142310       -1.8855223803
  O        -8.0870004405       -7.4369608581       -0.7449951352
  C        -9.2637717352       -3.4248031045       -2.1287629167
  H        -9.5435102925       -4.0726156799       -2.9624854104
  O        -8.1685743898       -2.7562864935       -2.2769679175
  O        -9.8293124780       -3.4993302663       -1.0042472880
  C        -6.7198117275       -1.5155721631       -7.0057360974
  H        -7.7266400310       -1.9701098143       -7.1795729881
  O        -6.3208037730       -1.2812141421       -5.7891801227
  O        -6.0546670581       -1.2647410752       -8.0219575549
  C        -1.9610306020        5.6962737072       -7.4797868569
  H        -1.8068881661        6.7616764611       -7.4798700689
  O        -2.4613788677        5.1953402046       -6.4147373301
  O        -1.7592038190        5.0404242691       -8.5376948407
  C        -1.7153677193        9.0065729983       -3.7807068554
  H        -1.3518565997        9.2891789052       -4.8285272378
  O        -1.7735635219        7.7204009534       -3.5311974415
  O        -1.9589811591        9.8892286280       -2.9296575010
  C         2.5176986766        8.6527359013       -4.1276241396
  H         2.7356319561        9.0838176512       -5.0545617483
  O         2.0941304229        7.4607563111       -4.0382054964
  O         2.6632020791        9.4136986823       -3.1567247192
  C         1.7405814703        5.3615037054       -8.2026998584
  H         1.4592813282        6.4433815072       -8.3446733349
  O         2.2712544771        5.0744229803       -7.0359036782
  O         1.5374971892        4.4786315137       -9.0204193621
  C         9.4791869119        2.6134878200        3.9079418032
  H         9.6264681644        3.4611325178        4.5867541287
  O         8.5294682966        2.7206869475        3.0468687327
  O        10.1884170796        1.5361363159        4.0354546634
  C         6.6320899766        7.0427804887        3.3240585285
  H         7.5183451153        7.1103565644        4.0025867163
  O         6.4921259472        6.1579139584        2.4473334656
  O         5.8014508194        7.8970951585        3.5804466065
  C         4.7468288793        5.8510846562        6.9391041765
  H         5.6837062732        5.7110173508        7.4566454645
  O         4.3315486404        4.9881730889        6.0840680113
  O         4.1390624477        6.9214380767        7.1338855679
  C         7.5642974957        1.7429307679        7.1823006621
  H         8.1116275708        2.6102062210        7.6466333920
  O         6.7423080014        2.0330978891        6.2208765696
  O         7.8434776238        0.5800715711        7.5931108165
     227
 i =        1, time =        1.000, E =        -8.5788997886
 Cd        -8.6193415173        0.4796354971        3.4771690283
 Cd        -5.8715317084       -0.2572042965        7.1143961181
 Cd        -8.4082118445       -2.1541313395        0.3852372164
 Cd        -6.8927293740       -3.2918089310        3.9610976168
 Cd        -3.6901790675       -3.7003820571        7.3823704941
 Cd        -6.4419695475       -6.2357488752        0.4642829097
 Cd        -4.3123532919       -6.8296103449        3.9052134066
 Cd        -6.1163737603        3.8609258359        2.9055584417
 Cd        -3.6066128050        2.8812239417        6.5903954315
 Cd        -6.7534200732        1.1872303399       -0.3192195419
 Cd        -4.0444064624        0.0755170187        3.0501776977
 Cd        -1.7741904948       -0.3125729557        6.8335615909
 Cd        -6.3660842009       -1.4624350775       -3.4401679158
 Cd        -4.3613461808       -3.1217855283       -0.1745564345
 Cd        -2.2426082753       -3.6215689282        3.6336034189
 Cd         0.1787000933       -3.9615873331        7.0369286702
 Cd        -4.2693600349       -5.9882167737       -2.9988612213
 Cd        -2.2487062514       -6.7966132798        0.6791746920
 Cd         0.0677865144       -7.3029848174        3.8542277287
 Cd        -4.0802774271        7.4119351863        2.4182631187
 Cd        -1.6107725229        6.4879322115        6.2509535116
 Cd        -4.3325171750        4.8128050257       -0.6769446745
 Cd        -1.8303887436        3.6695913040        3.1589424023
 Cd         0.4898040284        3.1633486446        6.7205149522
 Cd        -4.5996151963        2.0001001664       -4.0890082155
 Cd        -2.1628843781        1.0181229889       -0.4517492340
 Cd         0.1384267474       -0.0681674401        3.1344050086
 Cd         2.6424459250       -0.6635613312        6.8958842459
 Cd        -4.1540631320       -0.5351505566       -6.9611275482
 Cd        -2.2031736925       -1.8490990728       -3.4900262322
 Cd         0.0358072675       -2.8474735326       -0.0250970057
 Cd         2.4397127522       -3.8215525495        3.5304638932
 Cd         4.5938423233       -4.2151913330        6.5946692558
 Cd        -2.6316861075       -4.5699710265       -6.0785385129
 Cd        -0.3609679231       -6.1210437905       -3.0631265735
 Cd         1.9864087900       -6.8523324854       -0.0374589386
 Cd         4.3578742102       -7.5050357631        3.0973947607
 Cd        -2.4320527046        8.2867280874       -1.2003444525
 Cd         0.1211451110        6.7911391667        2.0747840283
 Cd         2.2580857788        6.3879400997        5.9826295077
 Cd        -2.2740350152        5.5405430076       -4.1121175787
 Cd         0.1544602386        4.6148596851       -0.9823316281
 Cd         2.6165175506        3.7533585925        2.4610330571
 Cd         4.3939132548        2.5015214457        5.6446917839
 Cd        -2.3864710270        3.0937011641       -7.5398968702
 Cd        -0.1312629157        1.7709122297       -4.3474148084
 Cd         2.1531589326        0.8600215778       -0.9631980429
 Cd         4.3034630773       -0.4402618790        2.5248165899
 Cd         6.4920182453       -0.6517862386        6.0104862328
 Cd         0.4042573729       -0.5927791557       -7.0621327156
 Cd         2.1513022206       -1.8410933892       -3.9633270612
 Cd         4.1299652453       -2.9780180235       -0.5482294196
 Cd         6.9198158440       -3.7969752455        2.8855373162
 Cd         1.0695414825       -4.7691868717       -6.7906770579
 Cd         3.6506197476       -5.7625086952       -3.6177086328
 Cd         5.7329527655       -6.5640151114       -0.3327664046
 Cd         2.4551128978        8.1222995165       -1.1565999270
 Cd         4.4053370683        7.2897951802        1.7948217736
 Cd         2.3804037585        5.2451998049       -4.8087165807
 Cd         4.8189698283        4.7184534030       -1.4283972155
 Cd         6.7582252003        3.8401507743        2.0311394846
 Cd         2.6217935168        2.7828957623       -7.7033765508
 Cd         4.8493282631        1.7846682991       -4.5231336866
 Cd         6.7277055969        1.0650092147       -0.9631022845
 Cd         8.8867404947        0.4155707938        2.4347963040
 Cd         4.3617886912       -0.9226152461       -7.7309278677
 Cd         6.7427671518       -1.9756129143       -4.2012671143
 Cd         8.5291294321       -2.6208006869       -0.2527833843
 Se        -9.0548013523        0.2428960145        0.9183115664
 Se        -6.3727683590       -0.6564824896        4.4183119404
 Se        -3.9345291687       -1.3489359161        8.2965545957
 Se        -6.5831286134       -3.7425342222        1.3880806952
 Se        -4.5790842831       -4.2748437144        4.8597383814
 Se        -4.6122365877       -7.7766123214        1.5328334457
 Se        -6.6422885403        3.9855708954        0.4576935989
 Se        -4.0719753029        2.6208490357        3.9143027175
 Se        -1.6333185794        2.0117457005        7.9251566356
 Se        -6.7116998801        0.9829098226       -3.1654688297
 Se        -4.4070772861       -0.2111913742        0.3948882511
 Se        -2.0531364517       -1.1153474176        4.2593927620
 Se         0.4060021124       -1.5661488687        8.0651001398
 Se        -4.4160835033       -3.1299979828       -2.8046755409
 Se        -2.2374427179       -4.0915934625        0.9472070489
 Se         0.1530572048       -4.8127577332        4.4858083856
 Se        -2.4165643201       -7.4206423675       -2.0539486033
 Se        -0.0669528669       -7.8791623825        1.3095388037
 Se        -4.5521580854        7.5948478422       -0.0126086670
 Se        -1.8467722564        6.3633037641        3.5400845127
 Se         0.4037060541        5.8261639734        7.5859059658
 Se        -4.4660548262        4.5539695018       -3.3489565743
 Se        -2.0809893686        3.7152522143        0.3431794176
 Se         0.4982336515        2.6970019998        3.7286862273
 Se         2.7718003016        1.9958749590        7.6262385598
 Se        -4.6132047974        2.0747826016       -6.9049146350
 Se        -2.2788959414        0.8535264745       -3.1261005988
 Se         0.0145563257       -0.1632212849        0.3853983846
 Se         2.3129693040       -1.3189260023        3.9990192021
 Se         4.8631605828       -1.8843001078        7.7354347130
 Se        -2.0702066219       -1.9664194087       -6.4603856721
 Se        -0.0447207595       -3.1599377388       -2.8087919560
 Se         2.2323280271       -4.2314670755        0.7809400543
 Se         4.8362435141       -4.9531020947        4.0967226404
 Se        -0.7551456853       -6.2848474055       -5.8413965359
 Se         1.9250147748       -7.4790699374       -2.6076374778
 Se         4.2593642649       -8.3792103796        0.7363962663
 Se         0.0356394415        7.3686299457       -0.4913452652
 Se         2.3809249944        6.5252190110        3.1424837036
 Se         0.0437231825        4.4288370333       -3.5940065182
 Se         2.5163957441        3.6274392822       -0.0568435064
 Se         4.7727102635        2.4661834322        3.1253294167
 Se         0.0455214548        1.9299848246       -6.9705188422
 Se         2.2758369008        0.7648429150       -3.6570732067
 Se         4.3766610986       -0.2853659854       -0.0178102874
 Se         6.9677242194       -1.1294335168        3.5582390748
 Se         2.2370122370       -2.2681931433       -6.6837733042
 Se         4.3737489812       -3.1974959325       -3.2156708188
 Se         6.4331616368       -4.1116891935        0.4129636660
 Se         4.8515679189        7.5524242502       -0.7459312441
 Se         4.8774967619        4.5489930893       -4.0122445213
 Se         7.0856126339        3.5934689731       -0.6429048292
 Se         4.7817152064        1.5264322102       -7.5555498667
 Se         6.9185778754        0.6112263065       -3.7073749994
 Se         9.1068854027       -0.0626885959       -0.0923419308
  C         6.9966797084       -6.9498474379       -2.8612692086
  H         7.7649322095       -7.1224747738       -3.6684216540
  O         5.8440194421       -6.4672327243       -3.1401025861
  O         7.2885696436       -7.2741584770       -1.6936394570
  C         3.3950624977       -6.2673102565       -6.9491850127
  H         4.3444066225       -6.8936096686       -7.0753272229
  O         3.0188408109       -5.7909063282       -5.7820185795
  O         2.6177282038       -6.1689336877       -7.9240008289
  C         6.3106280886       -2.9078481700       -7.4910638952
  H         7.1299137504       -3.7048862282       -7.4466889051
  O         6.0085441753       -2.3182052133       -6.3474498518
  O         5.9393828094       -2.4742590555       -8.6124834166
  C         8.9774542414       -3.3708792244       -3.4296517155
  H         9.9250180562       -3.8774829974       -3.1826003730
  O         8.5682956651       -3.4148867890       -4.6046296563
  O         8.2717487469       -2.6966904663       -2.5200560816
  C         9.7980802166       -4.6252030884        2.1810003009
  H        10.6408655401       -5.3318691344        2.3887999993
  O         9.7471190310       -4.1805245851        0.9925999956
  O         9.0286287187       -4.5681423296        3.1870499474
  C        -2.8217333518       -8.8884440761        5.3598596932
  H        -2.4154187803       -9.9024293192        5.4343946394
  O        -1.9847430890       -7.9306650157        5.0423449910
  O        -4.0904663743       -8.7274641245        5.4044311913
  C         2.9969234097       -8.6916287989        5.2874256608
  H         2.6967725338       -9.0398269484        6.2934215078
  O         1.9993454695       -8.3578917523        4.5594335159
  O         4.2233703176       -8.6006228108        4.9155462238
  C         2.8793074992       -5.7053265660        8.2324327144
  H         2.3955873073       -6.3773024893        8.9303283437
  O         2.2189925678       -4.8088470638        7.6163730820
  O         4.1498373039       -5.9034991961        8.1536265104
  C        -2.5347147102       -5.9173471438        8.5220140707
  H        -2.0052498086       -6.7390725628        9.0096019785
  O        -1.9214006289       -5.2583725495        7.5983419736
  O        -3.6522438852       -5.5084329662        8.8927888247
  C        -6.8630692568        2.3027049857        7.3892152249
  H        -7.2086193538        3.3071349018        7.3885257928
  O        -5.6213249154        2.1591240721        7.5337241552
  O        -7.6695748571        1.3702796007        7.1999535342
  C        -4.1169944632        6.2828081216        7.2281975693
  H        -5.2418933127        6.2896177269        7.3832000201
  O        -3.5267008936        5.2290541057        6.7738493158
  O        -3.5911052667        7.4673456252        7.3180736787
  C        -6.2567460526        7.1462489378        4.0780904015
  H        -7.2111390447        7.1649409639        4.6689854642
  O        -5.8090652384        6.0478737998        3.6278878254
  O        -5.6128006815        8.2207482615        3.8487478735
  C        -9.2742278526        2.9617611646        4.4604749134
  H        -9.7855372140        3.8838940690        4.7760086716
  O        -8.0588421343        3.0119098203        4.1192879353
  O       -10.0811302549        1.9792917607        4.3922078213
  C        -9.6032849791       -3.5282231927        4.2551701381
  H       -10.5971720209       -3.6001750875        4.7566807035
  O        -9.3833097047       -2.7227952640        3.2942677734
  O        -8.6786477566       -4.3017108453        4.7630020808
  C        -5.4081381529       -6.0792392243       -6.1562002010
  H        -6.0546960796       -6.5859836395       -6.8890942905
  O        -5.3110635436       -6.5041133022       -4.9652299623
  O        -4.7984402205       -5.0927568053       -6.6853257700
  C        -7.4874971983       -7.2705818263       -1.8347926931
  H        -7.8388434959       -7.7173330376       -2.7530342297
  O        -6.3887629721       -6.5550075305       -1.8843199797
  O        -8.0717181206       -7.4409339516       -0.7458480258
  C        -9.2562862011       -3.4269950916       -2.1219784245
  H        -9.5270787848       -4.0663584857       -2.9594189931
  O        -8.1698434892       -2.7554171023       -2.2727179730
  O        -9.8242471686       -3.4939811183       -1.0092232873
  C        -6.7207132335       -1.5101391785       -7.0046064828
  H        -7.7450574417       -1.9674181007       -7.1698505571
  O        -6.3198566370       -1.2781112256       -5.7990432801
  O        -6.0633446583       -1.2634753664       -8.0155408267
  C        -1.9629149393        5.6954918254       -7.4853241295
  H        -1.7770888886        6.7764005651       -7.4923242406
  O        -2.4611937789        5.1867392228       -6.4087316202
  O        -1.7563953289        5.0404621310       -8.5283853427
  C        -1.7169005412        9.0075174437       -3.7839131846
  H        -1.3493405476        9.2660238074       -4.8465614694
  O        -1.7700415366        7.7195066660       -3.5246383879
  O        -1.9637498681        9.8896101195       -2.9408655733
  C         2.5062467189        8.6538949155       -4.1272904615
  H         2.7131102182        9.0638249498       -5.0476060874
  O         2.0944607672        7.4532689024       -4.0307212988
  O         2.6627633215        9.4111859864       -3.1552668164
  C         1.7411676331        5.3672438410       -8.1968741351
  H         1.4358383610        6.4416008070       -8.3632925476
  O         2.2781571564        5.0766293055       -7.0407620550
  O         1.5312283874        4.4833793664       -9.0176028415
  C         9.4768975905        2.6096293324        3.8999955141
  H         9.6131090334        3.4671477718        4.5843902861
  O         8.5280253130        2.7173685044        3.0492016763
  O        10.1885700745        1.5401671982        4.0331223399
  C         6.6326657971        7.0383163454        3.3281982044
  H         7.5082674956        7.1289998248        4.0070788575
  O         6.4945096651        6.1604420541        2.4465684592
  O         5.7955105638        7.9030254133        3.5813171688
  C         4.7447640107        5.8524880792        6.9354097586
  H         5.7085862008        5.7040540943        7.4370666698
  O         4.3286105618        4.9885581809        6.0815390706
  O         4.1457065982        6.9224227136        7.1372003651
  C         7.5603404562        1.7452803987        7.1878960678
  H         8.1158840311        2.6116602203        7.6593692779
  O         6.7458914757        2.0302551476        6.2244660458
  O         7.8435273889        0.5821639491        7.5895544900
     227
 i =        2, time =        2.000, E =        -8.5934856673
 Cd        -8.6169934946        0.4782903593        3.4767638417
 Cd        -5.8707482171       -0.2576922552        7.1136480884
 Cd        -8.4088507414       -2.1551615110        0.3836843369
 Cd        -6.8896937173       -3.2939343952        3.9621546211