     227
 i =        0, time =        0.000, E =       -24.1445000223
 Cd        -8.6216924880        0.4810107428        3.4775887729
 Cd        -5.8723589632       -0.2566559957        7.1151373767
 Cd        -8.4076147924       -2.1531404527        0.3867588804
 Cd        -6.8957642261       -3.2896665849        3.9600318291
 Cd        -3.6930098048       -3.6992689615        7.3819491709
 Cd        -6.4429261463       -6.2347087238        0.4622469067
 Cd        -4.3123952394       -6.8285875372        3.9039095072
 Cd        -6.1141073353        3.8626235599        2.9066844924
 Cd        -3.6048790416        2.8797284733        6.5917986711
 Cd        -6.7531255596        1.1841266196       -0.3182182747
 Cd        -4.0437606329        0.0729837467        3.0511954168
 Cd        -1.7753257667       -0.3121054857        6.8316599018
 Cd        -6.3661028473       -1.4630135273       -3.4383357626
 Cd        -4.3602814436       -3.1214810613       -0.1759283953
 Cd        -2.2424276819       -3.6242998489        3.6335413818
 Cd         0.1757294635       -3.9625201566        7.0364714760
 Cd        -4.2692200317       -5.9860442556       -3.0005266361
 Cd        -2.2482225396       -6.7972628816        0.6786391664
 Cd         0.0669003827       -7.3030327295        3.8545421700
 Cd        -4.0792754193        7.4105475565        2.4175118797
 Cd        -1.6116442377        6.4880648240        6.2478272306
 Cd        -4.3308002626        4.8127262164       -0.6762739309
 Cd        -1.8326132452        3.6694977750        3.1598212265
 Cd         0.4939817277        3.1637060931        6.7202662426
 Cd        -4.5980154021        1.9988297698       -4.0880170010
 Cd        -2.1651194586        1.0165564496       -0.4536921834
 Cd         0.1376109507       -0.0659106884        3.1336818174
 Cd         2.6419074521       -0.6636939286        6.8958319365
 Cd        -4.1515129292       -0.5348426091       -6.9620217917
 Cd        -2.2012490343       -1.8491984656       -3.4894107829
 Cd         0.0359311218       -2.8494155653       -0.0264680683
 Cd         2.4407298775       -3.8224684908        3.5289587884
 Cd         4.5907434619       -4.2169180472        6.5928471603
 Cd        -2.6321953796       -4.5685798778       -6.0773989300
 Cd        -0.3638438279       -6.1221236347       -3.0620735359
 Cd         1.9882729153       -6.8506852632       -0.0376753302
 Cd         4.3604701588       -7.5063202656        3.0981086138
 Cd        -2.4313710890        8.2839908015       -1.2010761441
 Cd         0.1210964618        6.7915494583        2.0748938605
 Cd         2.2602783261        6.3879934074        5.9824457591
 Cd        -2.2743307721        5.5403016700       -4.1096429978
 Cd         0.1552258413        4.6164378819       -0.9814446932
 Cd         2.6173372932        3.7540356816        2.4616712460
 Cd         4.3934694910        2.5024270436        5.6448470259
 Cd        -2.3839877703        3.0961459608       -7.5397423510
 Cd        -0.1308699873        1.7716472388       -4.3458913396
 Cd         2.1522040622        0.8595996928       -0.9600505658
 Cd         4.3027041934       -0.4425155449        2.5248589789
 Cd         6.4943132815       -0.6514444341        6.0110723312
 Cd         0.4032906214       -0.5920449882       -7.0625722312
 Cd         2.1504065746       -1.8410095193       -3.9631978812
 Cd         4.1282053355       -2.9764966895       -0.5499119195
 Cd         6.9189885741       -3.8001688729        2.8840486736
 Cd         1.0693858855       -4.7693596381       -6.7909688629
 Cd         3.6529341800       -5.7620820022       -3.6150795142
 Cd         5.7341856059       -6.5625995016       -0.3323817960
 Cd         2.4532379782        8.1225833618       -1.1556872380
 Cd         4.4025673150        7.2904811152        1.7928276254
 Cd         2.3800547108        5.2453457502       -4.8107637235
 Cd         4.8184663347        4.7191125514       -1.4277792117
 Cd         6.7589411702        3.8390778732        2.0295448973
 Cd         2.6210634084        2.7844913241       -7.7035228004
 Cd         4.8495943395        1.7843685348       -4.5225056138
 Cd         6.7261500983        1.0662237140       -0.9642295531
 Cd         8.8881450478        0.4141445330        2.4369093904
 Cd         4.3615782352       -0.9213178924       -7.7328888960
 Cd         6.7438649008       -1.9767569930       -4.2031112584
 Cd         8.5272445020       -2.6218905711       -0.2551455218
 Se        -9.0557725106        0.2424574140        0.9180313808
 Se        -6.3745872764       -0.6570220647        4.4225742627
 Se        -3.9358548519       -1.3506397678        8.2925868769
 Se        -6.5830028390       -3.7408669090        1.3890860046
 Se        -4.5802302415       -4.2716541219        4.8585926421
 Se        -4.6110671623       -7.7792240778        1.5343213278
 Se        -6.6407812351        3.9866809498        0.4586064126
 Se        -4.0705866514        2.6241591830        3.9150270775
 Se        -1.6315747320        2.0143859544        7.9219454430
 Se        -6.7106235468        0.9827493806       -3.1628202938
 Se        -4.4077684895       -0.2106461950        0.3970531668
 Se        -2.0534879979       -1.1190641497        4.2604482105
 Se         0.4069246601       -1.5676855049        8.0617057342
 Se        -4.4126107232       -3.1307459794       -2.8028288282
 Se        -2.2371864822       -4.0884616040        0.9473336128
 Se         0.1541797359       -4.8148952714        4.4843326207
 Se        -2.4147106009       -7.4199706225       -2.0529393442
 Se        -0.0662571417       -7.8800811154        1.3078284855
 Se        -4.5519687636        7.5920037884       -0.0122560791
 Se        -1.8482840651        6.3647212661        3.5390459072
 Se         0.4006735392        5.8241498358        7.5878867146
 Se        -4.4655945585        4.5529209660       -3.3484418515
 Se        -2.0798083538        3.7153034916        0.3451575142
 Se         0.4973892782        2.6967113851        3.7286137790
 Se         2.7724753484        1.9958260876        7.6298945277
 Se        -4.6126224962        2.0736182894       -6.9031574659
 Se        -2.2770211290        0.8531533747       -3.1284312065
 Se         0.0138865169       -0.1636477002        0.3858468104
 Se         2.3115473387       -1.3198431962        4.0017354986
 Se         4.8624545925       -1.8855864388        7.7371297607
 Se        -2.0700877949       -1.9675257511       -6.4603372509
 Se        -0.0447057629       -3.1582708631       -2.8090856920
 Se         2.2343306950       -4.2299664240        0.7817840723
 Se         4.8342987615       -4.9516929708        4.0974643468
 Se        -0.7556003326       -6.2829108386       -5.8406699955
 Se         1.9243057511       -7.4784768035       -2.6074198353
 Se         4.2543989663       -8.3809591814        0.7363809319
 Se         0.0386925703        7.3677075300       -0.4939635450
 Se         2.3791568525        6.5289221229        3.1400383851
 Se         0.0465974103        4.4270318221       -3.5936563407
 Se         2.5167269427        3.6273521599       -0.0581806204
 Se         4.7705604635        2.4670139639        3.1233546104
 Se         0.0435933033        1.9323944164       -6.9695738842
 Se         2.2733127965        0.7623703678       -3.6584263160
 Se         4.3816175435       -0.2841549253       -0.0177063702
 Se         6.9670500347       -1.1290204494        3.5565582379
 Se         2.2410869402       -2.2702007814       -6.6798205275
 Se         4.3723294721       -3.1971869108       -3.2130677403
 Se         6.4331938555       -4.1098532443        0.4136420186
 Se         4.8503033307        7.5509093293       -0.7463548497
 Se         4.8776288797        4.5477652435       -4.0091414448
 Se         7.0830986217        3.5950723552       -0.6434567968
 Se         4.7810064642        1.5273410534       -7.5566303287
 Se         6.9188050062        0.6130038217       -3.7081238627
 Se         9.1066871843       -0.0609359671       -0.0919647969
  C         6.9955771113       -6.9586634775       -2.8583426301
  H         7.7780160969       -7.1271873265       -3.6573399650
  O         5.8389952916       -6.4652991204       -3.1445809228
  O         7.2920676004       -7.2683568805       -1.6893132711
  C         3.3939431960       -6.2668607509       -6.9513074648
  H         4.3245440932       -6.8689211647       -7.0591687882
  O         3.0202466073       -5.7860511295       -5.7843136273
  O         2.6220129789       -6.1746538788       -7.9242101403
  C         6.3116555909       -2.9071154185       -7.4921130606
  H         7.0978863851       -3.7212906458       -7.4285512081
  O         6.0096715894       -2.3219711192       -6.3505932827
  O         5.9403243477       -2.4750431756       -8.6116316973
  C         8.9837561036       -3.3697375837       -3.4349055328
  H         9.9249943929       -3.8864043165       -3.1840078659
  O         8.5659407989       -3.4209184445       -4.6048832464
  O         8.2714489672       -2.6971151254       -2.5207012617
  C         9.7902109758       -4.6282247391        2.1768529346
  H        10.6284324694       -5.3337138149        2.3552924638
  O         9.7484501532       -4.1824896055        0.9942458601
  O         9.0219926648       -4.5705851174        3.1873629795
  C        -2.8252708508       -8.8894178348        5.3653894160
  H        -2.3915771747       -9.8892286280        5.4446685031
  O        -1.9808601030       -7.9304545651        5.0436955975
  O        -4.0908415257       -8.7280019527        5.4030844137
  C         3.0047406823       -8.6887063298        5.2919739424
  H         2.6853413808       -9.0312323512        6.2714246943
  O         1.9985977812       -8.3553887881        4.5599054594
  O         4.2197147413       -8.6069092298        4.9235206312
  C         2.8732291572       -5.7090624943        8.2322507888
  H         2.4095730423       -6.3582442170        8.9295273658
  O         2.2236878889       -4.8031284854        7.6183804854
  O         4.1525405945       -5.8988692439        8.1468427445
  C        -2.5324052264       -5.9090323801        8.5168983878
  H        -2.0058427467       -6.7599986745        9.0204193621
  O        -1.9189018681       -5.2527647032        7.5983339134
  O        -3.6521974131       -5.4981014961        8.8936623702
  C        -6.8661340661        2.3082426882        7.3884767521
  H        -7.2433530482        3.2983326111        7.3747512577
  O        -5.6189307919        2.1553364867        7.5292857639
  O        -7.6694328727        1.3672322100        7.2032576312
  C        -4.1128935570        6.2776012356        7.2258109093
  H        -5.2184092536        6.2949225170        7.4003980339
  O        -3.5215502414        5.2331222329        6.7794929280
  O        -3.5956064510        7.4679880815        7.3184340370
  C        -6.2584500423        7.1467273309        4.0778865765
  H        -7.2018864753        7.1620259062        4.6862261037
  O        -5.8042352338        6.0508881806        3.6277903665
  O        -5.6141473350        8.2227071687        3.8530055117
  C        -9.2670155991        2.9624473135        4.4549609073
  H        -9.7760873251        3.8307467380        4.7753730710
  O        -8.0580447847        3.0137717908        4.1153681461
  O       -10.0869615960        1.9755230626        4.3964141791
  C        -9.5997958208       -3.5202239981        4.2555074891
  H       -10.6284324694       -3.6062117458        4.7363993397
  O        -9.3836198173       -2.7271085544        3.2939504316
  O        -8.6749593009       -4.3055307223        4.7674147240
  C        -5.4063829718       -6.0836320759       -6.1576393485
  H        -6.0390997038       -6.5934387315       -6.8768176703
  O        -5.3157147411       -6.5042627408       -4.9638375967
  O        -4.7997118332       -5.0931497246       -6.6842330004
  C        -7.4812021438       -7.2683192216       -1.8337008205
  H        -7.8430239833       -7.7214409635       -2.7403108931
  O        -6.3847231004       -6.5596142310       -1.8855223803
  O        -8.0870004405       -7.4369608581       -0.7449951352
  C        -9.2637717352       -3.4248031045       -2.1287629167
  H        -9.5435102925       -4.0726156799       -2.9624854104
  O        -8.1685743898       -2.7562864935       -2.2769679175
  O        -9.8293124780       -3.4993302663       -1.0042472880
  C        -6.7198117275       -1.5155721631       -7.0057360974
  H        -7.7266400310       -1.9701098143       -7.1795729881
  O        -6.3208037730       -1.2812141421       -5.7891801227
  O        -6.0546670581       -1.2647410752       -8.0219575549
  C        -1.9610306020        5.6962737072       -7.4797868569
  H        -1.8068881661        6.7616764611       -7.4798700689
  O        -2.4613788677        5.1953402046       -6.4147373301
  O        -1.7592038190        5.0404242691       -8.5376948407
  C        -1.7153677193        9.0065729983       -3.7807068554
  H        -1.3518565997        9.2891789052       -4.8285272378
  O        -1.7735635219        7.7204009534       -3.5311974415
  O        -1.9589811591        9.8892286280       -2.9296575010
  C         2.5176986766        8.6527359013       -4.1276241396
  H         2.7356319561        9.0838176512       -5.0545617483
  O         2.0941304229        7.4607563111       -4.0382054964
  O         2.6632020791        9.4136986823       -3.1567247192
  C         1.7405814703        5.3615037054       -8.2026998584
  H         1.4592813282        6.4433815072       -8.3446733349
  O         2.2712544771        5.0744229803       -7.0359036782
  O         1.5374971892        4.4786315137       -9.0204193621
  C         9.4791869119        2.6134878200        3.9079418032
  H         9.6264681644        3.4611325178        4.5867541287
  O         8.5294682966        2.7206869475        3.0468687327
  O        10.1884170796        1.5361363159        4.0354546634
  C         6.6320899766        7.0427804887        3.3240585285
  H         7.5183451153        7.1103565644        4.0025867163
  O         6.4921259472        6.1579139584        2.4473334656
  O         5.8014508194        7.8970951585        3.5804466065
  C         4.7468288793        5.8510846562        6.9391041765
  H         5.6837062732        5.7110173508        7.4566454645
  O         4.3315486404        4.9881730889        6.0840680113
  O         4.1390624477        6.9214380767        7.1338855679
  C         7.5642974957        1.7429307679        7.1823006621
  H         8.1116275708        2.6102062210        7.6466333920
  O         6.7423080014        2.0330978891        6.2208765696
  O         7.8434776238        0.5800715711        7.5931108165
     227
 i =        1, time =        1.000, E =       -24.1549975448
 Cd        -8.6193515605        0.4796690517        3.4771581550
 Cd        -5.8715172569       -0.2571752476        7.1144148402
 Cd        -8.4082438053       -2.1541306951        0.3852352048
 Cd        -6.8927476888       -3.2918182185        3.9610905614
 Cd        -3.6901778696       -3.7003937755        7.3824202131
 Cd        -6.4419842137       -6.2357823263        0.4642523277
 Cd        -4.3123536071       -6.8296564046        3.9052117604
 Cd        -6.1163958536        3.8609410970        2.9055511443
 Cd        -3.6066264835        2.8812343756        6.5904478857
 Cd        -6.7534502592        1.1872470304       -0.3192309804
 Cd        -4.0444388119        0.0755207572        3.0502015572
 Cd        -1.7741791304       -0.3125618335        6.8336325495
 Cd        -6.3661161959       -1.4623996014       -3.4401865139
 Cd        -4.3613468825       -3.1217921718       -0.1745523146
 Cd        -2.2426212834       -3.6215542021        3.6336245723
 Cd         0.1787307662       -3.9615912238        7.0369578434
 Cd        -4.2693862973       -5.9882773985       -2.9988722883
 Cd        -2.2486837940       -6.7966649934        0.6791581958
 Cd         0.0677985915       -7.3029986619        3.8542308082
 Cd        -4.0803475389        7.4119346832        2.4182532426
 Cd        -1.6107949488        6.4879109306        6.2510070979
 Cd        -4.3325684135        4.8128108485       -0.6769707564
 Cd        -1.8304135563        3.6695967998        3.1589510229
 Cd         0.4898070643        3.1633234518        6.7205860807
 Cd        -4.5996874265        2.0001308323       -4.0890023722
 Cd        -2.1629098393        1.0181222384       -0.4517684117
 Cd         0.1384392239       -0.0681816403        3.1344366483
 Cd         2.6424381520       -0.6635636485        6.8959616592
 Cd        -4.1541205696       -0.5351570939       -6.9611372927
 Cd        -2.2031900176       -1.8491124426       -3.4900240695
 Cd         0.0358084629       -2.8475152157       -0.0251012505
 Cd         2.4397066409       -3.8215459369        3.5304763483
 Cd         4.5938266933       -4.2152097538        6.5947080755
 Cd        -2.6317002561       -4.5700065293       -6.0785653791
 Cd        -0.3609702420       -6.1211214534       -3.0631443178
 Cd         1.9863933526       -6.8523876887       -0.0374718607
 Cd         4.3578541928       -7.5050995291        3.0974259082
 Cd        -2.4320697739        8.2867260721       -1.2003840328
 Cd         0.1211454087        6.7911488978        2.0748184895
 Cd         2.2581322740        6.3879290056        5.9827073637
 Cd        -2.2740554267        5.5405481018       -4.1121400247
 Cd         0.1544560195        4.6148799697       -0.9823733554
 Cd         2.6165402345        3.7533354342        2.4610053226
 Cd         4.3939460492        2.5015513269        5.6447021839
 Cd        -2.3865026202        3.0937644604       -7.5398838204
 Cd        -0.1312657100        1.7709491080       -4.3474343117
 Cd         2.1532076937        0.8600228201       -0.9632168319
 Cd         4.3034821859       -0.4402483625        2.5247873236
 Cd         6.4920539773       -0.6517685365        6.0104957831
 Cd         0.4042772406       -0.5927811358       -7.0621285615
 Cd         2.1513459713       -1.8411030843       -3.9633492584
 Cd         4.1300058492       -2.9780341226       -0.5482420083
 Cd         6.9198361502       -3.7969887528        2.8855050014
 Cd         1.0695943908       -4.7692559849       -6.7906569569
 Cd         3.6506529269       -5.7625415164       -3.6177467554
 Cd         5.7330065484       -6.5640574198       -0.3328093251
 Cd         2.4551479294        8.1222984392       -1.1566615755
 Cd         4.4053827260        7.2897868381        1.7948498658
 Cd         2.3804129279        5.2452454418       -4.8087448021
 Cd         4.8190248237        4.7184615278       -1.4284464420
 Cd         6.7582554312        3.8401508128        2.0311510869
 Cd         2.6218198295        2.7829349002       -7.7033838853
 Cd         4.8494043509        1.7846679911       -4.5231184724
 Cd         6.7277637173        1.0650435983       -0.9631335010
 Cd         8.8867494133        0.4155996114        2.4347877814
 Cd         4.3618520683       -0.9226082597       -7.7309053388
 Cd         6.7428056021       -1.9756297731       -4.2012791044
 Cd         8.5291349162       -2.6208121989       -0.2528224926
 Se        -9.0546722700        0.2428042762        0.9183484132
 Se        -6.3727317777       -0.6565211369        4.4182893776
 Se        -3.9345648685       -1.3489863736        8.2964001788
 Se        -6.5830970469       -3.7425262826        1.3880771926
 Se        -4.5790396154       -4.2748285650        4.8596997269
 Se        -4.6122163763       -7.7764498597        1.5328759775
 Se        -6.6421596389        3.9855253947        0.4577588661
 Se        -4.0718987279        2.6208434858        3.9142511110
 Se        -1.6333486235        2.0117149804        7.9249557783
 Se        -6.7115480235        0.9828256191       -3.1654500289
 Se        -4.4070257477       -0.2111750958        0.3949223724
 Se        -2.0531295285       -1.1153540282        4.2593434588
 Se         0.4060020761       -1.5661914171        8.0649609987
 Se        -4.4160171068       -3.1299370624       -2.8046258538
 Se        -2.2374569353       -4.0915623704        0.9472002278
 Se         0.1530713750       -4.8127416183        4.4857668071
 Se        -2.4165769830       -7.4204685991       -2.0539696868
 Se        -0.0669867990       -7.8790013317        1.3095619368
 Se        -4.5519782954        7.5948122943       -0.0125394557
 Se        -1.8466689607        6.3632840504        3.5400062193
 Se         0.4036873737        5.8261753931        7.5857061386
 Se        -4.4659149932        4.5539282312       -3.3489315163
 Se        -2.0809537505        3.7152451385        0.3431594634
 Se         0.4981843832        2.6970270062        3.7286360430
 Se         2.7717747559        1.9958420826        7.6260648364
 Se        -4.6130432436        2.0747125301       -6.9048881926
 Se        -2.2788440150        0.8534909229       -3.1260957224
 Se         0.0145424742       -0.1632257344        0.3853904531
 Se         2.3129800632       -1.3189406114        3.9989462866
 Se         4.8631268505       -1.8843198632        7.7352683702
 Se        -2.0702363980       -1.9663981962       -6.4603469164
 Se        -0.0447550214       -3.1598723522       -2.8087800392
 Se         2.2323239265       -4.2314067784        0.7809191587
 Se         4.8362179933       -4.9530355513        4.0967191245
 Se        -0.7551545043       -6.2846640992       -5.8413878722
 Se         1.9249969258       -7.4789034875       -2.6075712612
 Se         4.2593825821       -8.3790431820        0.7364634101
 Se         0.0356785374        7.3685685857       -0.4912455207
 Se         2.3808581357        6.5252170778        3.1423900038
 Se         0.0437023346        4.4287810662       -3.5939594270
 Se         2.5163406333        3.6274511101       -0.0567775510
 Se         4.7726357193        2.4662038016        3.1253454161
 Se         0.0455218437        1.9298386958       -6.9704268946
 Se         2.2757602154        0.7647916314       -3.6570260298
 Se         4.3765919947       -0.2853804200       -0.0177431253
 Se         6.9676683069       -1.1294519532        3.5582769197
 Se         2.2368875505       -2.2680796806       -6.6837446153
 Se         4.3736424302       -3.1974666256       -3.2155977168
 Se         6.4331030100       -4.1116651384        0.4130485311
 Se         4.8513883160        7.5523957661       -0.7458305100
 Se         4.8773925728        4.5489370819       -4.0121549617
 Se         7.0854775236        3.5933976690       -0.6428484433
 Se         4.7815453233        1.5263628672       -7.5555375989
 Se         6.9184203958        0.6112214658       -3.7073405177
 Se         9.1067885088       -0.0627436734       -0.0922416440
  C         6.9966636406       -6.9497596478       -2.8612732765
  H         7.7649322095       -7.1224747738       -3.6684216540
  O         5.8437996329       -6.4671678650       -3.1400208262
  O         7.2882197701       -7.2739563969       -1.6933617388
  C         3.3951015839       -6.2672621993       -6.9491375010
  H         4.3444066225       -6.8936096686       -7.0753272229
  O         3.0187641548       -5.7907446169       -5.7817738252
  O         2.6175631535       -6.1687272391       -7.9238607886
  C         6.3106263897       -2.9078776249       -7.4909652850
  H         7.1299137504       -3.7048862282       -7.4466889051
  O         6.0085206671       -2.3180753852       -6.3472961015
  O         5.9391732405       -2.4740839285       -8.6123486947
  C         8.9773837831       -3.3708969787       -3.4296171914
  H         9.9250180562       -3.8774829974       -3.1826003730
  O         8.5680609885       -3.4147273746       -4.6045352437
  O         8.2715815572       -2.6966772368       -2.5199276217
  C         9.7980136048       -4.6251769490        2.1809738776
  H        10.6408655401       -5.3318691344        2.3887999993
  O         9.7469465288       -4.1803140807        0.9925244573
  O         9.0282601219       -4.5679835852        3.1869930509
  C        -2.8217067900       -8.8883743691        5.3598601512
  H        -2.4154187803       -9.9024293192        5.4343946394
  O        -1.9846966947       -7.9305337301        5.0422142910
  O        -4.0904453179       -8.7272239925        5.4042878655
  C         2.9969050174       -8.6915552748        5.2874370484
  H         2.6967725338       -9.0398269484        6.2934215078
  O         1.9992192805       -8.3576878421        4.5593305603
  O         4.2233738853       -8.6003008964        4.9150714198
  C         2.8792704050       -5.7053313882        8.2323758247
  H         2.3955873073       -6.3773024893        8.9303283437
  O         2.2188524484       -4.8087255556        7.6161597569
  O         4.1498468913       -5.9032874988        8.1533646081
  C        -2.5346975602       -5.9173555244        8.5219292944
  H        -2.0052498086       -6.7390725628        9.0096019785
  O        -1.9214612057       -5.2580980535        7.5982780242
  O        -3.6522338297       -5.5082097157        8.8925541810
  C        -6.8630547606        2.3027163778        7.3891185317
  H        -7.2086193538        3.3071349018        7.3885257928
  O        -5.6211424941        2.1590170973        7.5335381989
  O        -7.6693516124        1.3701282816        7.1999319785
  C        -4.1170174004        6.2827646067        7.2281304556
  H        -5.2418933127        6.2896177269        7.3832000201
  O        -3.5264912920        5.2289553933        6.7737197559
  O        -3.5909042925        7.4672220861        7.3179096125
  C        -6.2567129959        7.1461892005        4.0781152551
  H        -7.2111390447        7.1649409639        4.6689854642
  O        -5.8089292862        6.0477431284        3.6277719130
  O        -5.6124830870        8.2205409263        3.8485206522
  C        -9.2741525103        2.9617187377        4.4604979057
  H        -9.7855372140        3.8838940690        4.7760086716
  O        -8.0586888919        3.0118609095        4.1191968298
  O       -10.0808674824        1.9790600690        4.3920995193
  C        -9.6032334204       -3.5281940394        4.2551394947
  H       -10.5971720209       -3.6001750875        4.7566807035
  O        -9.3830981990       -2.7227519696        3.2942865650
  O        -8.6782883053       -4.3014877165        4.7628441390
  C        -5.4081391873       -6.0791891156       -6.1561466918
  H        -6.0546960796       -6.5859836395       -6.8890942905
  O        -5.3108482951       -6.5039355149       -4.9649759590
  O        -4.7981546065       -5.0926583800       -6.6851837403
  C        -7.4874647966       -7.2705013367       -1.8348063197
  H        -7.8388434959       -7.7173330376       -2.7530342297
  O        -6.3886255049       -6.5548586196       -1.8841444588
  O        -8.0714936557       -7.4407455180       -0.7456945080
  C        -9.2562125240       -3.4270229119       -2.1219547914
  H        -9.5270787848       -4.0663584857       -2.9594189931
  O        -8.1697102245       -2.7553266619       -2.2726450292
  O        -9.8240473750       -3.4938565258       -1.0091007131
  C        -6.7206835582       -1.5101871172       -7.0045534686
  H        -7.7450574417       -1.9674181007       -7.1698505571
  O        -6.3196426072       -1.2781637054       -5.7988780154
  O        -6.0630507565       -1.2634262479       -8.0153569827
  C        -1.9628603352        5.6954793036       -7.4852727097
  H        -1.7770888886        6.7764005651       -7.4923242406
  O        -2.4610879210        5.1865706186       -6.4086128411
  O        -1.7564778832        5.0401341187       -8.5281601214
  C        -1.7168467673        9.0074576199       -3.7839190095
  H        -1.3493405476        9.2660238074       -4.8465614694
  O        -1.7701683743        7.7192917357       -3.5245382886
  O        -1.9637869246        9.8893823265       -2.9406560807
  C         2.5061997880        8.6538430181       -4.1272915000
  H         2.7131102182        9.0638249498       -5.0476060874
  O         2.0944689229        7.4530657910       -4.0307210870
  O         2.6626833012        9.4110438524       -3.1550550591
  C         1.7411041983        5.3672368457       -8.1968243994
  H         1.4358383610        6.4416008070       -8.3632925476
  O         2.2781622142        5.0764221005       -7.0404447298
  O         1.5313732291        4.4831906890       -9.0174093133
  C         9.4768064465        2.6096187412        3.9000204986
  H         9.6131090334        3.4671477718        4.5843902861
  O         8.5278509304        2.7172865002        3.0490718596
  O        10.1883696998        1.5400257156        4.0329132682
  C         6.6326320153        7.0382472433        3.3282275631
  H         7.5082674956        7.1289998248        4.0070788575
  O         6.4943157449        6.1602711343        2.4465314896
  O         5.7953095408        7.9028987823        3.5810948241
  C         4.7447835307        5.8524574158        6.9353422350
  H         5.7085862008        5.7040540943        7.4370666698
  O         4.3284428781        4.9884941252        6.0814336945
  O         4.1454154685        6.9223196291        7.1369524708
  C         7.5603242761        1.7452837479        7.1878190072
  H         8.1158840311        2.6116602203        7.6593692779
  O         6.7457122803        2.0301496196        6.2243908839
  O         7.8433884991        0.5820538768        7.5893255301
     227
 i =        2, time =        2.000, E =       -24.1736357106
 Cd        -8.6170333253        0.4784246052        3.4767201101
 Cd        -5.8706906935       -0.2575759844        7.1137233467
 Cd        -8.4089787050       -2.1551595374        0.3836751532
 Cd        -6.8897605298       -3.2939740783        3.9621189531