     227
 i =        0, time =        0.000, E =       -18.7061151025
 Cd        -8.6216924880        0.4810107428        3.4775887729
 Cd        -5.8723589632       -0.2566559957        7.1151373767
 Cd        -8.4076147924       -2.1531404527        0.3867588804
 Cd        -6.8957642261       -3.2896665849        3.9600318291
 Cd        -3.6930098048       -3.6992689615        7.3819491709
 Cd        -6.4429261463       -6.2347087238        0.4622469067
 Cd        -4.3123952394       -6.8285875372        3.9039095072
 Cd        -6.1141073353        3.8626235599        2.9066844924
 Cd        -3.6048790416        2.8797284733        6.5917986711
 Cd        -6.7531255596        1.1841266196       -0.3182182747
 Cd        -4.0437606329        0.0729837467        3.0511954168
 Cd        -1.7753257667       -0.3121054857        6.8316599018
 Cd        -6.3661028473       -1.4630135273       -3.4383357626
 Cd        -4.3602814436       -3.1214810613       -0.1759283953
 Cd        -2.2424276819       -3.6242998489        3.6335413818
 Cd         0.1757294635       -3.9625201566        7.0364714760
 Cd        -4.2692200317       -5.9860442556       -3.0005266361
 Cd        -2.2482225396       -6.7972628816        0.6786391664
 Cd         0.0669003827       -7.3030327295        3.8545421700
 Cd        -4.0792754193        7.4105475565        2.4175118797
 Cd        -1.6116442377        6.4880648240        6.2478272306
 Cd        -4.3308002626        4.8127262164       -0.6762739309
 Cd        -1.8326132452        3.6694977750        3.1598212265
 Cd         0.4939817277        3.1637060931        6.7202662426
 Cd        -4.5980154021        1.9988297698       -4.0880170010
 Cd        -2.1651194586        1.0165564496       -0.4536921834
 Cd         0.1376109507       -0.0659106884        3.1336818174
 Cd         2.6419074521       -0.6636939286        6.8958319365
 Cd        -4.1515129292       -0.5348426091       -6.9620217917
 Cd        -2.2012490343       -1.8491984656       -3.4894107829
 Cd         0.0359311218       -2.8494155653       -0.0264680683
 Cd         2.4407298775       -3.8224684908        3.5289587884
 Cd         4.5907434619       -4.2169180472        6.5928471603
 Cd        -2.6321953796       -4.5685798778       -6.0773989300
 Cd        -0.3638438279       -6.1221236347       -3.0620735359
 Cd         1.9882729153       -6.8506852632       -0.0376753302
 Cd         4.3604701588       -7.5063202656        3.0981086138
 Cd        -2.4313710890        8.2839908015       -1.2010761441
 Cd         0.1210964618        6.7915494583        2.0748938605
 Cd         2.2602783261        6.3879934074        5.9824457591
 Cd        -2.2743307721        5.5403016700       -4.1096429978
 Cd         0.1552258413        4.6164378819       -0.9814446932
 Cd         2.6173372932        3.7540356816        2.4616712460
 Cd         4.3934694910        2.5024270436        5.6448470259
 Cd        -2.3839877703        3.0961459608       -7.5397423510
 Cd        -0.1308699873        1.7716472388       -4.3458913396
 Cd         2.1522040622        0.8595996928       -0.9600505658
 Cd         4.3027041934       -0.4425155449        2.5248589789
 Cd         6.4943132815       -0.6514444341        6.0110723312
 Cd         0.4032906214       -0.5920449882       -7.0625722312
 Cd         2.1504065746       -1.8410095193       -3.9631978812
 Cd         4.1282053355       -2.9764966895       -0.5499119195
 Cd         6.9189885741       -3.8001688729        2.8840486736
 Cd         1.0693858855       -4.7693596381       -6.7909688629
 Cd         3.6529341800       -5.7620820022       -3.6150795142
 Cd         5.7341856059       -6.5625995016       -0.3323817960
 Cd         2.4532379782        8.1225833618       -1.1556872380
 Cd         4.4025673150        7.2904811152        1.7928276254
 Cd         2.3800547108        5.2453457502       -4.8107637235
 Cd         4.8184663347        4.7191125514       -1.4277792117
 Cd         6.7589411702        3.8390778732        2.0295448973
 Cd         2.6210634084        2.7844913241       -7.7035228004
 Cd         4.8495943395        1.7843685348       -4.5225056138
 Cd         6.7261500983        1.0662237140       -0.9642295531
 Cd         8.8881450478        0.4141445330        2.4369093904
 Cd         4.3615782352       -0.9213178924       -7.7328888960
 Cd         6.7438649008       -1.9767569930       -4.2031112584
 Cd         8.5272445020       -2.6218905711       -0.2551455218
 Se        -9.0557725106        0.2424574140        0.9180313808
 Se        -6.3745872764       -0.6570220647        4.4225742627
 Se        -3.9358548519       -1.3506397678        8.2925868769
 Se        -6.5830028390       -3.7408669090        1.3890860046
 Se        -4.5802302415       -4.2716541219        4.8585926421
 Se        -4.6110671623       -7.7792240778        1.5343213278
 Se        -6.6407812351        3.9866809498        0.4586064126
 Se        -4.0705866514        2.6241591830        3.9150270775
 Se        -1.6315747320        2.0143859544        7.9219454430
 Se        -6.7106235468        0.9827493806       -3.1628202938
 Se        -4.4077684895       -0.2106461950        0.3970531668
 Se        -2.0534879979       -1.1190641497        4.2604482105
 Se         0.4069246601       -1.5676855049        8.0617057342
 Se        -4.4126107232       -3.1307459794       -2.8028288282
 Se        -2.2371864822       -4.0884616040        0.9473336128
 Se         0.1541797359       -4.8148952714        4.4843326207
 Se        -2.4147106009       -7.4199706225       -2.0529393442
 Se        -0.0662571417       -7.8800811154        1.3078284855
 Se        -4.5519687636        7.5920037884       -0.0122560791
 Se        -1.8482840651        6.3647212661        3.5390459072
 Se         0.4006735392        5.8241498358        7.5878867146
 Se        -4.4655945585        4.5529209660       -3.3484418515
 Se        -2.0798083538        3.7153034916        0.3451575142
 Se         0.4973892782        2.6967113851        3.7286137790
 Se         2.7724753484        1.9958260876        7.6298945277
 Se        -4.6126224962        2.0736182894       -6.9031574659
 Se        -2.2770211290        0.8531533747       -3.1284312065
 Se         0.0138865169       -0.1636477002        0.3858468104
 Se         2.3115473387       -1.3198431962        4.0017354986
 Se         4.8624545925       -1.8855864388        7.7371297607
 Se        -2.0700877949       -1.9675257511       -6.4603372509
 Se        -0.0447057629       -3.1582708631       -2.8090856920
 Se         2.2343306950       -4.2299664240        0.7817840723
 Se         4.8342987615       -4.9516929708        4.0974643468
 Se        -0.7556003326       -6.2829108386       -5.8406699955
 Se         1.9243057511       -7.4784768035       -2.6074198353
 Se         4.2543989663       -8.3809591814        0.7363809319
 Se         0.0386925703        7.3677075300       -0.4939635450
 Se         2.3791568525        6.5289221229        3.1400383851
 Se         0.0465974103        4.4270318221       -3.5936563407
 Se         2.5167269427        3.6273521599       -0.0581806204
 Se         4.7705604635        2.4670139639        3.1233546104
 Se         0.0435933033        1.9323944164       -6.9695738842
 Se         2.2733127965        0.7623703678       -3.6584263160
 Se         4.3816175435       -0.2841549253       -0.0177063702
 Se         6.9670500347       -1.1290204494        3.5565582379
 Se         2.2410869402       -2.2702007814       -6.6798205275
 Se         4.3723294721       -3.1971869108       -3.2130677403
 Se         6.4331938555       -4.1098532443        0.4136420186
 Se         4.8503033307        7.5509093293       -0.7463548497
 Se         4.8776288797        4.5477652435       -4.0091414448
 Se         7.0830986217        3.5950723552       -0.6434567968
 Se         4.7810064642        1.5273410534       -7.5566303287
 Se         6.9188050062        0.6130038217       -3.7081238627
 Se         9.1066871843       -0.0609359671       -0.0919647969
  C         6.9955771113       -6.9586634775       -2.8583426301
  H         7.7780160969       -7.1271873265       -3.6573399650
  O         5.8389952916       -6.4652991204       -3.1445809228
  O         7.2920676004       -7.2683568805       -1.6893132711
  C         3.3939431960       -6.2668607509       -6.9513074648
  H         4.3245440932       -6.8689211647       -7.0591687882
  O         3.0202466073       -5.7860511295       -5.7843136273
  O         2.6220129789       -6.1746538788       -7.9242101403
  C         6.3116555909       -2.9071154185       -7.4921130606
  H         7.0978863851       -3.7212906458       -7.4285512081
  O         6.0096715894       -2.3219711192       -6.3505932827
  O         5.9403243477       -2.4750431756       -8.6116316973
  C         8.9837561036       -3.3697375837       -3.4349055328
  H         9.9249943929       -3.8864043165       -3.1840078659
  O         8.5659407989       -3.4209184445       -4.6048832464
  O         8.2714489672       -2.6971151254       -2.5207012617
  C         9.7902109758       -4.6282247391        2.1768529346
  H        10.6284324694       -5.3337138149        2.3552924638
  O         9.7484501532       -4.1824896055        0.9942458601
  O         9.0219926648       -4.5705851174        3.1873629795
  C        -2.8252708508       -8.8894178348        5.3653894160
  H        -2.3915771747       -9.8892286280        5.4446685031
  O        -1.9808601030       -7.9304545651        5.0436955975
  O        -4.0908415257       -8.7280019527        5.4030844137
  C         3.0047406823       -8.6887063298        5.2919739424
  H         2.6853413808       -9.0312323512        6.2714246943
  O         1.9985977812       -8.3553887881        4.5599054594
  O         4.2197147413       -8.6069092298        4.9235206312
  C         2.8732291572       -5.7090624943        8.2322507888
  H         2.4095730423       -6.3582442170        8.9295273658
  O         2.2236878889       -4.8031284854        7.6183804854
  O         4.1525405945       -5.8988692439        8.1468427445
  C        -2.5324052264       -5.9090323801        8.5168983878
  H        -2.0058427467       -6.7599986745        9.0204193621
  O        -1.9189018681       -5.2527647032        7.5983339134
  O        -3.6521974131       -5.4981014961        8.8936623702
  C        -6.8661340661        2.3082426882        7.3884767521
  H        -7.2433530482        3.2983326111        7.3747512577
  O        -5.6189307919        2.1553364867        7.5292857639
  O        -7.6694328727        1.3672322100        7.2032576312
  C        -4.1128935570        6.2776012356        7.2258109093
  H        -5.2184092536        6.2949225170        7.4003980339
  O        -3.5215502414        5.2331222329        6.7794929280
  O        -3.5956064510        7.4679880815        7.3184340370
  C        -6.2584500423        7.1467273309        4.0778865765
  H        -7.2018864753        7.1620259062        4.6862261037
  O        -5.8042352338        6.0508881806        3.6277903665
  O        -5.6141473350        8.2227071687        3.8530055117
  C        -9.2670155991        2.9624473135        4.4549609073
  H        -9.7760873251        3.8307467380        4.7753730710
  O        -8.0580447847        3.0137717908        4.1153681461
  O       -10.0869615960        1.9755230626        4.3964141791
  C        -9.5997958208       -3.5202239981        4.2555074891
  H       -10.6284324694       -3.6062117458        4.7363993397
  O        -9.3836198173       -2.7271085544        3.2939504316
  O        -8.6749593009       -4.3055307223        4.7674147240
  C        -5.4063829718       -6.0836320759       -6.1576393485
  H        -6.0390997038       -6.5934387315       -6.8768176703
  O        -5.3157147411       -6.5042627408       -4.9638375967
  O        -4.7997118332       -5.0931497246       -6.6842330004
  C        -7.4812021438       -7.2683192216       -1.8337008205
  H        -7.8430239833       -7.7214409635       -2.7403108931
  O        -6.3847231004       -6.5596142310       -1.8855223803
  O        -8.0870004405       -7.4369608581       -0.7449951352
  C        -9.2637717352       -3.4248031045       -2.1287629167
  H        -9.5435102925       -4.0726156799       -2.9624854104
  O        -8.1685743898       -2.7562864935       -2.2769679175
  O        -9.8293124780       -3.4993302663       -1.0042472880
  C        -6.7198117275       -1.5155721631       -7.0057360974
  H        -7.7266400310       -1.9701098143       -7.1795729881
  O        -6.3208037730       -1.2812141421       -5.7891801227
  O        -6.0546670581       -1.2647410752       -8.0219575549
  C        -1.9610306020        5.6962737072       -7.4797868569
  H        -1.8068881661        6.7616764611       -7.4798700689
  O        -2.4613788677        5.1953402046       -6.4147373301
  O        -1.7592038190        5.0404242691       -8.5376948407
  C        -1.7153677193        9.0065729983       -3.7807068554
  H        -1.3518565997        9.2891789052       -4.8285272378
  O        -1.7735635219        7.7204009534       -3.5311974415
  O        -1.9589811591        9.8892286280       -2.9296575010
  C         2.5176986766        8.6527359013       -4.1276241396
  H         2.7356319561        9.0838176512       -5.0545617483
  O         2.0941304229        7.4607563111       -4.0382054964
  O         2.6632020791        9.4136986823       -3.1567247192
  C         1.7405814703        5.3615037054       -8.2026998584
  H         1.4592813282        6.4433815072       -8.3446733349
  O         2.2712544771        5.0744229803       -7.0359036782
  O         1.5374971892        4.4786315137       -9.0204193621
  C         9.4791869119        2.6134878200        3.9079418032
  H         9.6264681644        3.4611325178        4.5867541287
  O         8.5294682966        2.7206869475        3.0468687327
  O        10.1884170796        1.5361363159        4.0354546634
  C         6.6320899766        7.0427804887        3.3240585285
  H         7.5183451153        7.1103565644        4.0025867163
  O         6.4921259472        6.1579139584        2.4473334656
  O         5.8014508194        7.8970951585        3.5804466065
  C         4.7468288793        5.8510846562        6.9391041765
  H         5.6837062732        5.7110173508        7.4566454645
  O         4.3315486404        4.9881730889        6.0840680113
  O         4.1390624477        6.9214380767        7.1338855679
  C         7.5642974957        1.7429307679        7.1823006621
  H         8.1116275708        2.6102062210        7.6466333920
  O         6.7423080014        2.0330978891        6.2208765696
  O         7.8434776238        0.5800715711        7.5931108165
     227
 i =        1, time =        1.000, E =       -18.7163210798
 Cd        -8.6193404154        0.4796466552        3.4771914919
 Cd        -5.8715901916       -0.2571591634        7.1143807456
 Cd        -8.4082417029       -2.1541732945        0.3852060853
 Cd        -6.8927196894       -3.2917802965        3.9610969203
 Cd        -3.6901813112       -3.7004346517        7.3823763680
 Cd        -6.4420014749       -6.2357646641        0.4642629777
 Cd        -4.3123427651       -6.8296283297        3.9052666318
 Cd        -6.1164153761        3.8609345490        2.9056203832
 Cd        -3.6066681029        2.8812508442        6.5903973787
 Cd        -6.7534398698        1.1872523646       -0.3192316363
 Cd        -4.0444567856        0.0755196750        3.0501823262
 Cd        -1.7741827822       -0.3126096868        6.8335965262
 Cd        -6.3661236931       -1.4625043387       -3.4401831829
 Cd        -4.3613888755       -3.1217651111       -0.1745403572
 Cd        -2.2426112209       -3.6216079099        3.6336131425
 Cd         0.1786792908       -3.9616123137        7.0369513240
 Cd        -4.2694191137       -5.9882024380       -2.9988724185
 Cd        -2.2487515859       -6.7966200380        0.6791380869
 Cd         0.0677727438       -7.3030397638        3.8542513178
 Cd        -4.0802835498        7.4119223827        2.4183274266
 Cd        -1.6108407425        6.4879629182        6.2509509997
 Cd        -4.3325527719        4.8128270596       -0.6769573724
 Cd        -1.8304070661        3.6696201493        3.1589244864
 Cd         0.4898085329        3.1633412891        6.7205377014
 Cd        -4.5996042514        2.0001323270       -4.0890486498
 Cd        -2.1629230632        1.0181543815       -0.4517593841
 Cd         0.1384300774       -0.0681512724        3.1344203750
 Cd         2.6424376675       -0.6635512905        6.8959087805
 Cd        -4.1541170268       -0.5351455054       -6.9611324623
 Cd        -2.2031951186       -1.8490833018       -3.4900528115
 Cd         0.0358025617       -2.8475094965       -0.0251035215
 Cd         2.4397218484       -3.8216032899        3.5304557163
 Cd         4.5938284917       -4.2152175279        6.5947055532
 Cd        -2.6317338536       -4.5699681520       -6.0785488584
 Cd        -0.3609544840       -6.1210590307       -3.0631494460
 Cd         1.9864198567       -6.8523612733       -0.0374545633
 Cd         4.3578682359       -7.5049950504        3.0973910454
 Cd        -2.4320161415        8.2867552976       -1.2004045325
 Cd         0.1211449886        6.7911688891        2.0747397162
 Cd         2.2581429658        6.3879488648        5.9826041426
 Cd        -2.2740156495        5.5405803841       -4.1121552414
 Cd         0.1544539524        4.6148799906       -0.9823320530
 Cd         2.6165145308        3.7533854333        2.4610778303
 Cd         4.3939511110        2.5015514690        5.6447378344
 Cd        -2.3864459663        3.0937298202       -7.5399076484
 Cd        -0.1312599077        1.7709467786       -4.3474170518
 Cd         2.1531828214        0.8600478288       -0.9632101089
 Cd         4.3035111972       -0.4402414048        2.5248505105
 Cd         6.4920437009       -0.6517460417        6.0105430952
 Cd         0.4042144902       -0.5927915250       -7.0621536235
 Cd         2.1513178621       -1.8411289920       -3.9633412081
 Cd         4.1300062733       -2.9780142594       -0.5482422590
 Cd         6.9198294757       -3.7969600261        2.8855747460
 Cd         1.0695993811       -4.7691843951       -6.7906931434
 Cd         3.6506567400       -5.7625250050       -3.6177129314
 Cd         5.7329517039       -6.5640037099       -0.3327822736
 Cd         2.4550759398        8.1223326301       -1.1566637380
 Cd         4.4054014775        7.2898086974        1.7948346935
 Cd         2.3804089906        5.2452296098       -4.8086982931
 Cd         4.8189740327        4.7184820759       -1.4283840610
 Cd         6.7582572679        3.8401725740        2.0311431873
 Cd         2.6217421231        2.7829551240       -7.7033881097
 Cd         4.8493022248        1.7847061747       -4.5231626056
 Cd         6.7277271885        1.0649762481       -0.9631259946
 Cd         8.8867526190        0.4155905363        2.4348203255
 Cd         4.3618196860       -0.9227005144       -7.7309278149
 Cd         6.7427805397       -1.9756373653       -4.2012603976
 Cd         8.5291495312       -2.6208121680       -0.2527955799
 Se        -9.0548072578        0.2429388601        0.9182866876
 Se        -6.3727679066       -0.6564913030        4.4183241255
 Se        -3.9345037718       -1.3489417880        8.2966090652
 Se        -6.5831067442       -3.7425575118        1.3880357983
 Se        -4.5790482359       -4.2749068740        4.8597754032
 Se        -4.6122465254       -7.7766287332        1.5328290117
 Se        -6.6423014241        3.9855384980        0.4576121729
 Se        -4.0719448801        2.6208360894        3.9143296388
 Se        -1.6332790377        2.0117962481        7.9251651729
 Se        -6.7117805316        0.9829553485       -3.1654037997
 Se        -4.4070784775       -0.2112026955        0.3948957108
 Se        -2.0530907591       -1.1153103874        4.2593983605
 Se         0.4059911609       -1.5661735654        8.0650937019
 Se        -4.4160666535       -3.1300348891       -2.8047013739
 Se        -2.2373973325       -4.0915807971        0.9472142556
 Se         0.1530311464       -4.8127231435        4.4858198376
 Se        -2.4165586021       -7.4206575285       -2.0539375684
 Se        -0.0668913772       -7.8791933429        1.3095739356
 Se        -4.5521896074        7.5948500695       -0.0126741334
 Se        -1.8468212287        6.3633222807        3.5401420982
 Se         0.4037150133        5.8261453046        7.5859652127
 Se        -4.4660898191        4.5539794018       -3.3489445795
 Se        -2.0809541110        3.7152292732        0.3431626355
 Se         0.4982394515        2.6969698332        3.7287211453
 Se         2.7717912125        1.9958655742        7.6262135702
 Se        -4.6132313765        2.0747448950       -6.9049143681
 Se        -2.2788893570        0.8534890435       -3.1261143121
 Se         0.0145873031       -0.1632380905        0.3854136729
 Se         2.3129871523       -1.3188463112        3.9990583504
 Se         4.8631795346       -1.8843023566        7.7354268883
 Se        -2.0701586716       -1.9664229169       -6.4603791664
 Se        -0.0446861629       -3.1599489612       -2.8087777736
 Se         2.2322999263       -4.2314520579        0.7809388000
 Se         4.8362401054       -4.9531269922        4.0967292629
 Se        -0.7551563260       -6.2848857762       -5.8413929991
 Se         1.9250075772       -7.4790513126       -2.6076475313
 Se         4.2593538233       -8.3792537667        0.7363710588
 Se         0.0356270384        7.3686286892       -0.4913141524
 Se         2.3809445465        6.5252099440        3.1425560028
 Se         0.0437513757        4.4288089307       -3.5940266103
 Se         2.5163675427        3.6274396421       -0.0569491297
 Se         4.7727351611        2.4661350551        3.1253130737
 Se         0.0455111087        1.9299878666       -6.9705575357
 Se         2.2758334140        0.7648593426       -3.6570486595
 Se         4.3766607801       -0.2853722601       -0.0178593363
 Se         6.9677038965       -1.1294710785        3.5581978385
 Se         2.2370182474       -2.2682221301       -6.6837892196
 Se         4.3737311489       -3.1974811884       -3.2156541049
 Se         6.4331329473       -4.1116987519        0.4129185333
 Se         4.8516287477        7.5524097918       -0.7459220062
 Se         4.8774573701        4.5489784653       -4.0122982659
 Se         7.0856220205        3.5935166168       -0.6428524733
 Se         4.7817735825        1.5264801121       -7.5555423020
 Se         6.9186141472        0.6112041000       -3.7073414167
 Se         9.1069072669       -0.0626999513       -0.0923517020
  C         6.9966668872       -6.9497773861       -2.8612724546
  H         7.7649322095       -7.1224747738       -3.6684216540
  O         5.8441021712       -6.4672649722       -3.1399906904
  O         7.2888382460       -7.2742450822       -1.6938964308
  C         3.3950936863       -6.2672719094       -6.9491471009
  H         4.3444066225       -6.8936096686       -7.0753272229
  O         3.0187862951       -5.7908541487       -5.7822038279
  O         2.6177389145       -6.1688969845       -7.9239916077
  C         6.3106267330       -2.9078716734       -7.4909852096
  H         7.1299137504       -3.7048862282       -7.4466889051
  O         6.0084486447       -2.3181928394       -6.3476433705
  O         5.9393578833       -2.4742593886       -8.6124539841
  C         8.9773980195       -3.3708933914       -3.4296241671
  H         9.9250180562       -3.8774829974       -3.1826003730
  O         8.5683005478       -3.4149121318       -4.6045955298
  O         8.2717058361       -2.6967595612       -2.5202115104
  C         9.7980270640       -4.6251822305        2.1809792165
  H        10.6408655401       -5.3318691344        2.3887999993
  O         9.7471317551       -4.1805411920        0.9926915854
  O         9.0287712343       -4.5681747718        3.1870666819
  C        -2.8217121569       -8.8883884537        5.3598600586
  H        -2.4154187803       -9.9024293192        5.4343946394
  O        -1.9848167362       -7.9305987905        5.0423119014
  O        -4.0904341616       -8.7273963568        5.4044150726
  C         2.9969087337       -8.6915701306        5.2874347475
  H         2.6967725338       -9.0398269484        6.2934215078
  O         1.9995287292       -8.3578844506        4.5594571787
  O         4.2233032020       -8.6009032782        4.9160589464
  C         2.8792779000       -5.7053304139        8.2323873195
  H         2.3955873073       -6.3773024893        8.9303283437
  O         2.2191974238       -4.8089023664        7.6163157346
  O         4.1497879008       -5.9035449317        8.1536153633
  C        -2.5347010254       -5.9173538311        8.5219464238
  H        -2.0052498086       -6.7390725628        9.0096019785
  O        -1.9213446700       -5.2583529032        7.5983311599
  O        -3.6522304872       -5.5084572822        8.8927710516
  C        -6.8630576896        2.3027140760        7.3891380690
  H        -7.2086193538        3.3071349018        7.3885257928
  O        -5.6214145575        2.1590779156        7.5337127043
  O        -7.6695195660        1.3702712250        7.1999415565
  C        -4.1170127659        6.2827733991        7.2281440162
  H        -5.2418933127        6.2896177269        7.3832000201
  O        -3.5267459348        5.2290740353        6.7738260478
  O        -3.5910521936        7.4672990604        7.3179998762
  C        -6.2567196752        7.1462012706        4.0781102333
  H        -7.2111390447        7.1649409639        4.6689854642
  O        -5.8089809181        6.0480102063        3.6279390137
  O        -5.6128815002        8.2207585602        3.8488796195
  C        -9.2741677335        2.9617273102        4.4604932600
  H        -9.7855372140        3.8838940690        4.7760086716
  O        -8.0588306330        3.0118485314        4.1192962329
  O       -10.0811750277        1.9793677263        4.3922816036
  C        -9.6032438380       -3.5281999299        4.2551456863
  H       -10.5971720209       -3.6001750875        4.7566807035
  O        -9.3831814008       -2.7227481881        3.2942726207
  O        -8.6789102354       -4.3018461646        4.7631250856
  C        -5.4081389783       -6.0791992403       -6.1561575035
  H        -6.0546960796       -6.5859836395       -6.8890942905
  O        -5.3110731203       -6.5040603796       -4.9653737148
  O        -4.7985298307       -5.0927546140       -6.6852987081
  C        -7.4874713435       -7.2705176000       -1.8348035664
  H        -7.8388434959       -7.7173330376       -2.7530342297
  O        -6.3887607487       -6.5549499422       -1.8843494057
  O        -8.0717027582       -7.4409031685       -0.7458465739
  C        -9.2562274108       -3.4270172907       -2.1219595665
  H        -9.5270787848       -4.0663584857       -2.9594189931
  O        -8.1698061444       -2.7554000700       -2.2726304229
  O        -9.8241993874       -3.4939886261       -1.0092361650
  C        -6.7206895542       -1.5101774310       -7.0045641804
  H        -7.7450574417       -1.9674181007       -7.1698505571
  O        -6.3197306894       -1.2781544672       -5.7991372182
  O        -6.0634167306       -1.2635548473       -8.0155638967
  C        -1.9628713682        5.6954818337       -7.4852830993
  H        -1.7770888886        6.7764005651       -7.4923242406
  O        -2.4611377233        5.1867522314       -6.4088176975
  O        -1.7563421606        5.0405704245       -8.5283942374
  C        -1.7168576325        9.0074697075       -3.7839178325
  H        -1.3493405476        9.2660238074       -4.8465614694
  O        -1.7700411932        7.7196317990       -3.5245798287
  O        -1.9637427536        9.8895512929       -2.9408321393
  C         2.5062092705        8.6538535042       -4.1272912902
  H         2.7131102182        9.0638249498       -5.0476060874
  O         2.0944382556        7.4533354490       -4.0306407812
  O         2.6627162769        9.4111825305       -3.1552703550
  C         1.7411170156        5.3672382591       -8.1968344487
  H         1.4358383610        6.4416008070       -8.3632925476
  O         2.2781079379        5.0765926126       -7.0410095789
  O         1.5312597270        4.4833634253       -9.0175517085
  C         9.4768248625        2.6096208812        3.9000154504
  H         9.6131090334        3.4671477718        4.5843902861
  O         8.5280914079        2.7173264530        3.0492762342
  O        10.1885592525        1.5401841663        4.0331402382
  C         6.6326388411        7.0382612056        3.3282216311
  H         7.5082674956        7.1289998248        4.0070788575
  O         6.4944356815        6.1604726507        2.4466138799
  O         5.7955093909        7.9029920766        3.5813421105
  C         4.7447795866        5.8524636115        6.9353558784
  H         5.7085862008        5.7040540943        7.4370666698
  O         4.3285573591        4.9885364589        6.0814724178
  O         4.1458464038        6.9224450661        7.1372295539
  C         7.5603275453        1.7452830711        7.1878345776
  H         8.1158840311        2.6116602203        7.6593692779
  O         6.7458739527        2.0301704431        6.2244381890
  O         7.8435129739        0.5821654792        7.5894844452
     227
 i =        2, time =        2.000, E =       -18.7335083682
 Cd        -8.6169898043        0.4783350405        3.4768537065
 Cd        -5.8709813801       -0.2575114079        7.1135868183
 Cd        -8.4089694202       -2.1553278258        0.3835607589
 Cd        -6.8896506541       -3.2938223177        3.9621457276