     227
 i =        0, time =        0.000, E =       -10.3453246756
 Cd        -8.6216924880        0.4810107428        3.4775887729
 Cd        -5.8723589632       -0.2566559957        7.1151373767
 Cd        -8.4076147924       -2.1531404527        0.3867588804
 Cd        -6.8957642261       -3.2896665849        3.9600318291
 Cd        -3.6930098048       -3.6992689615        7.3819491709
 Cd        -6.4429261463       -6.2347087238        0.4622469067
 Cd        -4.3123952394       -6.8285875372        3.9039095072
 Cd        -6.1141073353        3.8626235599        2.9066844924
 Cd        -3.6048790416        2.8797284733        6.5917986711
 Cd        -6.7531255596        1.1841266196       -0.3182182747
 Cd        -4.0437606329        0.0729837467        3.0511954168
 Cd        -1.7753257667       -0.3121054857        6.8316599018
 Cd        -6.3661028473       -1.4630135273       -3.4383357626
 Cd        -4.3602814436       -3.1214810613       -0.1759283953
 Cd        -2.2424276819       -3.6242998489        3.6335413818
 Cd         0.1757294635       -3.9625201566        7.0364714760
 Cd        -4.2692200317       -5.9860442556       -3.0005266361
 Cd        -2.2482225396       -6.7972628816        0.6786391664
 Cd         0.0669003827       -7.3030327295        3.8545421700
 Cd        -4.0792754193        7.4105475565        2.4175118797
 Cd        -1.6116442377        6.4880648240        6.2478272306
 Cd        -4.3308002626        4.8127262164       -0.6762739309
 Cd        -1.8326132452        3.6694977750        3.1598212265
 Cd         0.4939817277        3.1637060931        6.7202662426
 Cd        -4.5980154021        1.9988297698       -4.0880170010
 Cd        -2.1651194586        1.0165564496       -0.4536921834
 Cd         0.1376109507       -0.0659106884        3.1336818174
 Cd         2.6419074521       -0.6636939286        6.8958319365
 Cd        -4.1515129292       -0.5348426091       -6.9620217917
 Cd        -2.2012490343       -1.8491984656       -3.4894107829
 Cd         0.0359311218       -2.8494155653       -0.0264680683
 Cd         2.4407298775       -3.8224684908        3.5289587884
 Cd         4.5907434619       -4.2169180472        6.5928471603
 Cd        -2.6321953796       -4.5685798778       -6.0773989300
 Cd        -0.3638438279       -6.1221236347       -3.0620735359
 Cd         1.9882729153       -6.8506852632       -0.0376753302
 Cd         4.3604701588       -7.5063202656        3.0981086138
 Cd        -2.4313710890        8.2839908015       -1.2010761441
 Cd         0.1210964618        6.7915494583        2.0748938605
 Cd         2.2602783261        6.3879934074        5.9824457591
 Cd        -2.2743307721        5.5403016700       -4.1096429978
 Cd         0.1552258413        4.6164378819       -0.9814446932
 Cd         2.6173372932        3.7540356816        2.4616712460
 Cd         4.3934694910        2.5024270436        5.6448470259
 Cd        -2.3839877703        3.0961459608       -7.5397423510
 Cd        -0.1308699873        1.7716472388       -4.3458913396
 Cd         2.1522040622        0.8595996928       -0.9600505658
 Cd         4.3027041934       -0.4425155449        2.5248589789
 Cd         6.4943132815       -0.6514444341        6.0110723312
 Cd         0.4032906214       -0.5920449882       -7.0625722312
 Cd         2.1504065746       -1.8410095193       -3.9631978812
 Cd         4.1282053355       -2.9764966895       -0.5499119195
 Cd         6.9189885741       -3.8001688729        2.8840486736
 Cd         1.0693858855       -4.7693596381       -6.7909688629
 Cd         3.6529341800       -5.7620820022       -3.6150795142
 Cd         5.7341856059       -6.5625995016       -0.3323817960
 Cd         2.4532379782        8.1225833618       -1.1556872380
 Cd         4.4025673150        7.2904811152        1.7928276254
 Cd         2.3800547108        5.2453457502       -4.8107637235
 Cd         4.8184663347        4.7191125514       -1.4277792117
 Cd         6.7589411702        3.8390778732        2.0295448973
 Cd         2.6210634084        2.7844913241       -7.7035228004
 Cd         4.8495943395        1.7843685348       -4.5225056138
 Cd         6.7261500983        1.0662237140       -0.9642295531
 Cd         8.8881450478        0.4141445330        2.4369093904
 Cd         4.3615782352       -0.9213178924       -7.7328888960
 Cd         6.7438649008       -1.9767569930       -4.2031112584
 Cd         8.5272445020       -2.6218905711       -0.2551455218
 Se        -9.0557725106        0.2424574140        0.9180313808
 Se        -6.3745872764       -0.6570220647        4.4225742627
 Se        -3.9358548519       -1.3506397678        8.2925868769
 Se        -6.5830028390       -3.7408669090        1.3890860046
 Se        -4.5802302415       -4.2716541219        4.8585926421
 Se        -4.6110671623       -7.7792240778        1.5343213278
 Se        -6.6407812351        3.9866809498        0.4586064126
 Se        -4.0705866514        2.6241591830        3.9150270775
 Se        -1.6315747320        2.0143859544        7.9219454430
 Se        -6.7106235468        0.9827493806       -3.1628202938
 Se        -4.4077684895       -0.2106461950        0.3970531668
 Se        -2.0534879979       -1.1190641497        4.2604482105
 Se         0.4069246601       -1.5676855049        8.0617057342
 Se        -4.4126107232       -3.1307459794       -2.8028288282
 Se        -2.2371864822       -4.0884616040        0.9473336128
 Se         0.1541797359       -4.8148952714        4.4843326207
 Se        -2.4147106009       -7.4199706225       -2.0529393442
 Se        -0.0662571417       -7.8800811154        1.3078284855
 Se        -4.5519687636        7.5920037884       -0.0122560791
 Se        -1.8482840651        6.3647212661        3.5390459072
 Se         0.4006735392        5.8241498358        7.5878867146
 Se        -4.4655945585        4.5529209660       -3.3484418515
 Se        -2.0798083538        3.7153034916        0.3451575142
 Se         0.4973892782        2.6967113851        3.7286137790
 Se         2.7724753484        1.9958260876        7.6298945277
 Se        -4.6126224962        2.0736182894       -6.9031574659
 Se        -2.2770211290        0.8531533747       -3.1284312065
 Se         0.0138865169       -0.1636477002        0.3858468104
 Se         2.3115473387       -1.3198431962        4.0017354986
 Se         4.8624545925       -1.8855864388        7.7371297607
 Se        -2.0700877949       -1.9675257511       -6.4603372509
 Se        -0.0447057629       -3.1582708631       -2.8090856920
 Se         2.2343306950       -4.2299664240        0.7817840723
 Se         4.8342987615       -4.9516929708        4.0974643468
 Se        -0.7556003326       -6.2829108386       -5.8406699955
 Se         1.9243057511       -7.4784768035       -2.6074198353
 Se         4.2543989663       -8.3809591814        0.7363809319
 Se         0.0386925703        7.3677075300       -0.4939635450
 Se         2.3791568525        6.5289221229        3.1400383851
 Se         0.0465974103        4.4270318221       -3.5936563407
 Se         2.5167269427        3.6273521599       -0.0581806204
 Se         4.7705604635        2.4670139639        3.1233546104
 Se         0.0435933033        1.9323944164       -6.9695738842
 Se         2.2733127965        0.7623703678       -3.6584263160
 Se         4.3816175435       -0.2841549253       -0.0177063702
 Se         6.9670500347       -1.1290204494        3.5565582379
 Se         2.2410869402       -2.2702007814       -6.6798205275
 Se         4.3723294721       -3.1971869108       -3.2130677403
 Se         6.4331938555       -4.1098532443        0.4136420186
 Se         4.8503033307        7.5509093293       -0.7463548497
 Se         4.8776288797        4.5477652435       -4.0091414448
 Se         7.0830986217        3.5950723552       -0.6434567968
 Se         4.7810064642        1.5273410534       -7.5566303287
 Se         6.9188050062        0.6130038217       -3.7081238627
 Se         9.1066871843       -0.0609359671       -0.0919647969
  C         6.9955771113       -6.9586634775       -2.8583426301
  H         7.7780160969       -7.1271873265       -3.6573399650
  O         5.8389952916       -6.4652991204       -3.1445809228
  O         7.2920676004       -7.2683568805       -1.6893132711
  C         3.3939431960       -6.2668607509       -6.9513074648
  H         4.3245440932       -6.8689211647       -7.0591687882
  O         3.0202466073       -5.7860511295       -5.7843136273
  O         2.6220129789       -6.1746538788       -7.9242101403
  C         6.3116555909       -2.9071154185       -7.4921130606
  H         7.0978863851       -3.7212906458       -7.4285512081
  O         6.0096715894       -2.3219711192       -6.3505932827
  O         5.9403243477       -2.4750431756       -8.6116316973
  C         8.9837561036       -3.3697375837       -3.4349055328
  H         9.9249943929       -3.8864043165       -3.1840078659
  O         8.5659407989       -3.4209184445       -4.6048832464
  O         8.2714489672       -2.6971151254       -2.5207012617
  C         9.7902109758       -4.6282247391        2.1768529346
  H        10.6284324694       -5.3337138149        2.3552924638
  O         9.7484501532       -4.1824896055        0.9942458601
  O         9.0219926648       -4.5705851174        3.1873629795
  C        -2.8252708508       -8.8894178348        5.3653894160
  H        -2.3915771747       -9.8892286280        5.4446685031
  O        -1.9808601030       -7.9304545651        5.0436955975
  O        -4.0908415257       -8.7280019527        5.4030844137
  C         3.0047406823       -8.6887063298        5.2919739424
  H         2.6853413808       -9.0312323512        6.2714246943
  O         1.9985977812       -8.3553887881        4.5599054594
  O         4.2197147413       -8.6069092298        4.9235206312
  C         2.8732291572       -5.7090624943        8.2322507888
  H         2.4095730423       -6.3582442170        8.9295273658
  O         2.2236878889       -4.8031284854        7.6183804854
  O         4.1525405945       -5.8988692439        8.1468427445
  C        -2.5324052264       -5.9090323801        8.5168983878
  H        -2.0058427467       -6.7599986745        9.0204193621
  O        -1.9189018681       -5.2527647032        7.5983339134
  O        -3.6521974131       -5.4981014961        8.8936623702
  C        -6.8661340661        2.3082426882        7.3884767521
  H        -7.2433530482        3.2983326111        7.3747512577
  O        -5.6189307919        2.1553364867        7.5292857639
  O        -7.6694328727        1.3672322100        7.2032576312
  C        -4.1128935570        6.2776012356        7.2258109093
  H        -5.2184092536        6.2949225170        7.4003980339
  O        -3.5215502414        5.2331222329        6.7794929280
  O        -3.5956064510        7.4679880815        7.3184340370
  C        -6.2584500423        7.1467273309        4.0778865765
  H        -7.2018864753        7.1620259062        4.6862261037
  O        -5.8042352338        6.0508881806        3.6277903665
  O        -5.6141473350        8.2227071687        3.8530055117
  C        -9.2670155991        2.9624473135        4.4549609073
  H        -9.7760873251        3.8307467380        4.7753730710
  O        -8.0580447847        3.0137717908        4.1153681461
  O       -10.0869615960        1.9755230626        4.3964141791
  C        -9.5997958208       -3.5202239981        4.2555074891
  H       -10.6284324694       -3.6062117458        4.7363993397
  O        -9.3836198173       -2.7271085544        3.2939504316
  O        -8.6749593009       -4.3055307223        4.7674147240
  C        -5.4063829718       -6.0836320759       -6.1576393485
  H        -6.0390997038       -6.5934387315       -6.8768176703
  O        -5.3157147411       -6.5042627408       -4.9638375967
  O        -4.7997118332       -5.0931497246       -6.6842330004
  C        -7.4812021438       -7.2683192216       -1.8337008205
  H        -7.8430239833       -7.7214409635       -2.7403108931
  O        -6.3847231004       -6.5596142310       -1.8855223803
  O        -8.0870004405       -7.4369608581       -0.7449951352
  C        -9.2637717352       -3.4248031045       -2.1287629167
  H        -9.5435102925       -4.0726156799       -2.9624854104
  O        -8.1685743898       -2.7562864935       -2.2769679175
  O        -9.8293124780       -3.4993302663       -1.0042472880
  C        -6.7198117275       -1.5155721631       -7.0057360974
  H        -7.7266400310       -1.9701098143       -7.1795729881
  O        -6.3208037730       -1.2812141421       -5.7891801227
  O        -6.0546670581       -1.2647410752       -8.0219575549
  C        -1.9610306020        5.6962737072       -7.4797868569
  H        -1.8068881661        6.7616764611       -7.4798700689
  O        -2.4613788677        5.1953402046       -6.4147373301
  O        -1.7592038190        5.0404242691       -8.5376948407
  C        -1.7153677193        9.0065729983       -3.7807068554
  H        -1.3518565997        9.2891789052       -4.8285272378
  O        -1.7735635219        7.7204009534       -3.5311974415
  O        -1.9589811591        9.8892286280       -2.9296575010
  C         2.5176986766        8.6527359013       -4.1276241396
  H         2.7356319561        9.0838176512       -5.0545617483
  O         2.0941304229        7.4607563111       -4.0382054964
  O         2.6632020791        9.4136986823       -3.1567247192
  C         1.7405814703        5.3615037054       -8.2026998584
  H         1.4592813282        6.4433815072       -8.3446733349
  O         2.2712544771        5.0744229803       -7.0359036782
  O         1.5374971892        4.4786315137       -9.0204193621
  C         9.4791869119        2.6134878200        3.9079418032
  H         9.6264681644        3.4611325178        4.5867541287
  O         8.5294682966        2.7206869475        3.0468687327
  O        10.1884170796        1.5361363159        4.0354546634
  C         6.6320899766        7.0427804887        3.3240585285
  H         7.5183451153        7.1103565644        4.0025867163
  O         6.4921259472        6.1579139584        2.4473334656
  O         5.8014508194        7.8970951585        3.5804466065
  C         4.7468288793        5.8510846562        6.9391041765
  H         5.6837062732        5.7110173508        7.4566454645
  O         4.3315486404        4.9881730889        6.0840680113
  O         4.1390624477        6.9214380767        7.1338855679
  C         7.5642974957        1.7429307679        7.1823006621
  H         8.1116275708        2.6102062210        7.6466333920
  O         6.7423080014        2.0330978891        6.2208765696
  O         7.8434776238        0.5800715711        7.5931108165
     227
 i =        1, time =        1.000, E =       -10.3930487030
 Cd        -8.6193032105        0.4795749731        3.4773214825
 Cd        -5.8718865749       -0.2570761020        7.1142606227
 Cd        -8.4082675422       -2.1543483605        0.3850843745
 Cd        -6.8926094282       -3.2916256549        3.9611189319
 Cd        -3.6902048610       -3.7006079768        7.3822401358
 Cd        -6.4420913896       -6.2357212725        0.4642911580
 Cd        -4.3123019166       -6.8295535095        3.9054979086
 Cd        -6.1165252369        3.8609177212        2.9059035487
 Cd        -3.6068560484        2.8813279716        6.5902384685
 Cd        -6.7534312453        1.1872964991       -0.3192482697
 Cd        -4.0445710147        0.0755176062        3.0501235115
 Cd        -1.7741846569       -0.3128020924        6.8335197223
 Cd        -6.3661941646       -1.4629121673       -3.4401836375
 Cd        -4.3615725717       -3.1216570480       -0.1744846481
 Cd        -2.2425827170       -3.6218262177        3.6335885763
 Cd         0.1784840363       -3.9617029155        7.0369582187
 Cd        -4.2695779093       -5.9879455561       -2.9988806387
 Cd        -2.2490166762       -6.7964874488        0.6790349034
 Cd         0.0676716310       -7.3032322260        3.8543409270
 Cd        -4.0800735687        7.4118754104        2.4186209627
 Cd        -1.6110445497        6.4881727270        6.2507676701
 Cd        -4.3325439114        4.8129047584       -0.6769301698
 Cd        -1.8304073806        3.6697248268        3.1588228014
 Cd         0.4898183048        3.1633903393        6.7204059674
 Cd        -4.5993307986        2.0001717548       -4.0892432821
 Cd        -2.1630102691        1.0182946753       -0.4517411753
 Cd         0.1384041222       -0.0680348315        3.1343874321
 Cd         2.6424271926       -0.6634995353        6.8957660936
 Cd        -4.1541501140       -0.5350993846       -6.9611241356
 Cd        -2.2032363031       -1.8489720412       -3.4901749615
 Cd         0.0357785329       -2.8475331174       -0.0251169064
 Cd         2.4397822669       -3.8218441901        3.5303832267
 Cd         4.5938300629       -4.2152655902        6.5947311879
 Cd        -2.6318886156       -4.5698438729       -6.0785056685
 Cd        -0.3608890790       -6.1208746671       -3.0631891723
 Cd         1.9865174662       -6.8523096681       -0.0373954649
 Cd         4.3579113521       -7.5046142274        3.0972639395
 Cd        -2.4318138060        8.2868812319       -1.2005220194
 Cd         0.1211421056        6.7912696024        2.0744421162
 Cd         2.2582225027        6.3880290952        5.9822415850
 Cd        -2.2738728094        5.5407218912       -4.1122406041
 Cd         0.1544402441        4.6149018873       -0.9822011520
 Cd         2.6164306787        3.7535771062        2.4613589241
 Cd         4.3940043400        2.5015797445        5.6449015858
 Cd        -2.3862442017        3.0936302381       -7.5400029582
 Cd        -0.1312406025        1.7709766529       -4.3473647393
 Cd         2.1531294252        0.8601597327       -0.9632041207
 Cd         4.3036593435       -0.4401975640        2.5250900943
 Cd         6.4920380583       -0.6516377376        6.0107517248
 Cd         0.4039678148       -0.5928391831       -7.0622646637
 Cd         2.1512445231       -1.8412518427       -3.9633298382
 Cd         4.1300521983       -2.9779466174       -0.5482586799
 Cd         6.9198172861       -3.7968498402        2.8858409421
 Cd         1.0696610604       -4.7689419656       -6.7908324459
 Cd         3.6507063018       -5.7624910896       -3.6176025663
 Cd         5.7327671867       -6.5638189127       -0.3327043574
 Cd         2.4548068457        8.1224795254       -1.1567306388
 Cd         4.4055197689        7.2899004272        1.7947898939
 Cd         2.3804052679        5.2452071304       -4.8085251629
 Cd         4.8188150883        4.7185819606       -1.4281698814
 Cd         6.7582980428        3.8402677209        2.0311186726
 Cd         2.6214490970        2.7830690605       -7.7034159959
 Cd         4.8489494244        1.7848695264       -4.5233376567
 Cd         6.7276331123        1.0647243208       -0.9631273691
 Cd         8.8867795081        0.4155691455        2.4349417443
 Cd         4.3617423500       -0.9230767037       -7.7310070474
 Cd         6.7427071607       -1.9756785820       -4.2011913078
 Cd         8.5292214879       -2.6208179341       -0.2527196901
 Se        -9.0552803758        0.2434242228        0.9180548439
 Se        -6.3728913023       -0.6564010644        4.4184591454
 Se        -3.9342894887       -1.3488061920        8.2973722837
 Se        -6.5831274549       -3.7426894548        1.3878601510
 Se        -4.5790478935       -4.2752339421        4.8600705813
 Se        -4.6123672890       -7.7772542191        1.5326741834
 Se        -6.6427980707        3.9855601186        0.4570515898
 Se        -4.0720700332        2.6208029553        3.9146182435
 Se        -1.6330190437        2.0121192555        7.9258772889
 Se        -6.7126402874        0.9834211676       -3.1652020450
 Se        -4.4072540349       -0.2113094544        0.3948128742
 Se        -2.0529173366       -1.1151340102        4.2595838383
 Se         0.4059445741       -1.5661487541        8.0655450127
 Se        -4.4162196761       -3.1303995483       -2.8049853958
 Se        -2.2371551888       -4.0916253425        0.9472647563
 Se         0.1528720201       -4.8126374271        4.4860121616
 Se        -2.4165040667       -7.4213101330       -2.0538309979
 Se        -0.0665198998       -7.8798715830        1.3096528200
 Se        -4.5529229369        7.5949975681       -0.0131791738
 Se        -1.8473639971        6.3634841954        3.5406471170
 Se         0.4038140418        5.8260472082        7.5868906582
 Se        -4.4667056542        4.5541740937       -3.3489913454
 Se        -2.0809153645        3.7151561937        0.3431579330
 Se         0.4984252089        2.6967509302        3.7290388386
 Se         2.7718464223        1.9959414338        7.6266926380
 Se        -4.6138858233        2.0748191539       -6.9050226803
 Se        -2.2790281213        0.8534427417       -3.1261914551
 Se         0.0147659339       -0.1632944072        0.3855046367
 Se         2.3130294480       -1.3184563112        3.9994694136
 Se         4.8633835642       -1.8842537758        7.7359603975
 Se        -2.0698561725       -1.9665082499       -6.4604962265
 Se        -0.0444242349       -3.1602133433       -2.8087586823
 Se         2.2321932050       -4.2315835986        0.7810032357
 Se         4.8363202105       -4.9534628219        4.0967779558
 Se        -0.7551761117       -6.2856670845       -5.8414261825
 Se         1.9250423077       -7.4795369215       -2.6079182284
 Se         4.2592595000       -8.3800138369        0.7360461284
 Se         0.0354450180        7.3688425068       -0.4915106810
 Se         2.3812493156        6.5251985406        3.1431779924
 Se         0.0439424588        4.4288797359       -3.5942747691
 Se         2.5164277280        3.6274041643       -0.0576141288
 Se         4.7730954907        2.4658588827        3.1251969741
 Se         0.0454663086        1.9304802009       -6.9710425585
 Se         2.2760680854        0.7651005249       -3.6571005591
 Se         4.3768851544       -0.2853496131       -0.0182870686
 Se         6.9678079370       -1.1295742605        3.5579076462
 Se         2.2374519693       -2.2687226748       -6.6839684602
 Se         4.3740115022       -3.1975201660       -3.2158294766
 Se         6.4332202696       -4.1118272654        0.4124532533
 Se         4.8524864006        7.5524644379       -0.7462163630
 Se         4.8776415379        4.5491139367       -4.0128339684
 Se         7.0861258892        3.5939653550       -0.6428151890
 Se         4.7825881810        1.5269157633       -7.5555712885
 Se         6.9192994830        0.6111297454       -3.7073212858
 Se         9.1073455022       -0.0625679054       -0.0927266783
  C         6.9966620680       -6.9497510554       -2.8612736747
  H         7.7649322095       -7.1224747738       -3.6684216540
  O         5.8452850901       -6.4676370664       -3.1397953150
  O         7.2912229718       -7.2753109473       -1.6959823516
  C         3.3951054094       -6.2672574957       -6.9491328508
  H         4.3444066225       -6.8936096686       -7.0753272229
  O         3.0188451383       -5.7911903919       -5.7838754720
  O         2.6183936662       -6.1694720831       -7.9244621778
  C         6.3106262234       -2.9078805078       -7.4909556336
  H         7.1299137504       -3.7048862282       -7.4466889051
  O         6.0081124780       -2.3186292969       -6.3490495392
  O         5.9400030422       -2.4749039462       -8.6128064857
  C         8.9773768870       -3.3708987164       -3.4296138123
  H         9.9250180562       -3.8774829974       -3.1826003730
  O         8.5691753309       -3.4156138160       -4.6047745190
  O         8.2721165700       -2.6971369723       -2.5213394848
  C         9.7980070852       -4.6251743906        2.1809712914
  H        10.6408655401       -5.3318691344        2.3887999993
  O         9.7477700547       -4.1813770722        0.9933857641
  O         9.0306988378       -4.5688727832        3.1873411665
  C        -2.8217041903       -8.8883675466        5.3598601960
  H        -2.4154187803       -9.9024293192        5.4343946394
  O        -1.9853333577       -7.9307810440        5.0426657986
  O        -4.0903523835       -8.7279630535        5.4048759753
  C         2.9969032173       -8.6915480787        5.2874381630
  H         2.6967725338       -9.0398269484        6.2934215078
  O         2.0008053887       -8.3585822413        4.5599537501
  O         4.2229958458       -8.6032093065        4.9199064484
  C         2.8792667744       -5.7053318602        8.2323702567
  H         2.3955873073       -6.3773024893        8.9303283437
  O         2.2205849833       -4.8095952578        7.6168137769
  O         4.1495191572       -5.9045194228        8.1544954913
  C        -2.5346958817       -5.9173563447        8.5219209970
  H        -2.0052498086       -6.7390725628        9.0096019785
  O        -1.9208912991       -5.2592820465        7.5985210478
  O        -3.6522041938       -5.5093794834        8.8935312268
  C        -6.8630533418        2.3027174928        7.3891090679
  H        -7.2086193538        3.3071349018        7.3885257928
  O        -5.6224913618        2.1592870040        7.5343315070
  O        -7.6700790450        1.3707919650        7.1999607692
  C        -4.1170196454        6.2827603477        7.2281238869
  H        -5.2418933127        6.2896177269        7.3832000201
  O        -3.5277133570        5.2295354088        6.7741780108
  O        -3.5915549494        7.4675390199        7.3182534896
  C        -6.2567097605        7.1461833537        4.0781176876
  H        -7.2111390447        7.1649409639        4.6689854642
  O        -5.8091009915        6.0490912847        3.6286227316
  O        -5.6143443108        8.2215196568        3.8502689691
  C        -9.2741451363        2.9617145852        4.4605001561
  H        -9.7855372140        3.8838940690        4.7760086716
  O        -8.0593476169        3.0117695357        4.1196994085
  O       -10.0823022159        1.9805294681        4.3930054109
  C        -9.6032283741       -3.5281911860        4.2551364955
  H       -10.5971720209       -3.6001750875        4.7566807035
  O        -9.3833634015       -2.7226871652        3.2942241507
  O        -8.6813137297       -4.3032132888        4.7642166625
  C        -5.4081392886       -6.0791842113       -6.1561414546
  H        -6.0546960796       -6.5859836395       -6.8890942905
  O        -5.3118783892       -6.5044370149       -4.9669289720
  O        -4.7999644145       -5.0930919431       -6.6856796114
  C        -7.4874616254       -7.2704934589       -1.8348076534
  H        -7.8388434959       -7.7173330376       -2.7530342297
  O        -6.3892861399       -6.5552223336       -1.8851166070
  O        -8.0724453647       -7.4414389359       -0.7463961936
  C        -9.2562053129       -3.4270256347       -2.1219524783
  H        -9.5270787848       -4.0663584857       -2.9594189931
  O        -8.1701375916       -2.7556843321       -2.2725001256
  O        -9.8247058226       -3.4944897204       -1.0097552794
  C        -6.7206806538       -1.5101918091       -7.0045482799
  H        -7.7450574417       -1.9674181007       -7.1698505571
  O        -6.3199454656       -1.2781733851       -5.8001443352
  O        -6.0647837718       -1.2640971525       -8.0163179580
  C        -1.9628549908        5.6954780780       -7.4852676770
  H        -1.7770888886        6.7764005651       -7.4923242406
  O        -2.4612522223        5.1874360662       -6.4096374910
  O        -1.7558073095        5.0422087041       -8.5292167390
  C        -1.7168415042        9.0074517647       -3.7839195796
  H        -1.3493405476        9.2660238074       -4.8465614694
  O        -1.7695628201        7.7209644303       -3.5246953952
  O        -1.9635688002        9.8901074459       -2.9414433034
  C         2.5061951946        8.6538379387       -4.1272916017
  H         2.7131102182        9.0638249498       -5.0476060874
  O         2.0942886740        7.4543815357       -4.0302868395
  O         2.6627831999        9.4116898959       -3.1560618357
  C         1.7410979897        5.3672361610       -8.1968195315
  H         1.4358383610        6.4416008070       -8.3632925476
  O         2.2778510118        5.0771988948       -7.0432091092
  O         1.5308721902        4.4839716790       -9.0180087900
  C         9.4767975259        2.6096177046        3.9000229439
  H         9.6131090334        3.4671477718        4.5843902861
  O         8.5290173143        2.7174584876        3.0501066270
  O        10.1892300097        1.5407737676        4.0339780503
  C         6.6326287089        7.0382404800        3.3282304366
  H         7.5082674956        7.1289998248        4.0070788575
  O         6.4948146184        6.1612310054        2.4469803469
  O         5.7962174096        7.9032859681        3.5822616789
  C         4.7447854412        5.8524544147        6.9353356261
  H         5.7085862008        5.7040540943        7.4370666698
  O         4.3289438526        4.9886811586        6.0815434953
  O         4.1475003439        6.9229075302        7.1382223470
  C         7.5603226924        1.7452840756        7.1878114649
  H         8.1158840311        2.6116602203        7.6593692779
  O         6.7464798621        2.0301888523        6.2245830100
  O         7.8439620189        0.5825818642        7.5899927086
     227
 i =        2, time =        2.000, E =       -10.5156031821
 Cd        -8.6168503709        0.4780528063        3.4773754918
 Cd        -5.8721592775       -0.2571792862        7.1131087090
 Cd        -8.4090708672       -2.1560160893        0.3830824487
 Cd        -6.8892272402       -3.2932158686        3.9622374676