     227
 i =        0, time =        0.000, E =        -9.0413736925
 Cd        -8.6216924880        0.4810107428        3.4775887729
 Cd        -5.8723589632       -0.2566559957        7.1151373767
 Cd        -8.4076147924       -2.1531404527        0.3867588804
 Cd        -6.8957642261       -3.2896665849        3.9600318291
 Cd        -3.6930098048       -3.6992689615        7.3819491709
 Cd        -6.4429261463       -6.2347087238        0.4622469067
 Cd        -4.3123952394       -6.8285875372        3.9039095072
 Cd        -6.1141073353        3.8626235599        2.9066844924
 Cd        -3.6048790416        2.8797284733        6.5917986711
 Cd        -6.7531255596        1.1841266196       -0.3182182747
 Cd        -4.0437606329        0.0729837467        3.0511954168
 Cd        -1.7753257667       -0.3121054857        6.8316599018
 Cd        -6.3661028473       -1.4630135273       -3.4383357626
 Cd        -4.3602814436       -3.1214810613       -0.1759283953
 Cd        -2.2424276819       -3.6242998489        3.6335413818
 Cd         0.1757294635       -3.9625201566        7.0364714760
 Cd        -4.2692200317       -5.9860442556       -3.0005266361
 Cd        -2.2482225396       -6.7972628816        0.6786391664
 Cd         0.0669003827       -7.3030327295        3.8545421700
 Cd        -4.0792754193        7.4105475565        2.4175118797
 Cd        -1.6116442377        6.4880648240        6.2478272306
 Cd        -4.3308002626        4.8127262164       -0.6762739309
 Cd        -1.8326132452        3.6694977750        3.1598212265
 Cd         0.4939817277        3.1637060931        6.7202662426
 Cd        -4.5980154021        1.9988297698       -4.0880170010
 Cd        -2.1651194586        1.0165564496       -0.4536921834
 Cd         0.1376109507       -0.0659106884        3.1336818174
 Cd         2.6419074521       -0.6636939286        6.8958319365
 Cd        -4.1515129292       -0.5348426091       -6.9620217917
 Cd        -2.2012490343       -1.8491984656       -3.4894107829
 Cd         0.0359311218       -2.8494155653       -0.0264680683
 Cd         2.4407298775       -3.8224684908        3.5289587884
 Cd         4.5907434619       -4.2169180472        6.5928471603
 Cd        -2.6321953796       -4.5685798778       -6.0773989300
 Cd        -0.3638438279       -6.1221236347       -3.0620735359
 Cd         1.9882729153       -6.8506852632       -0.0376753302
 Cd         4.3604701588       -7.5063202656        3.0981086138
 Cd        -2.4313710890        8.2839908015       -1.2010761441
 Cd         0.1210964618        6.7915494583        2.0748938605
 Cd         2.2602783261        6.3879934074        5.9824457591
 Cd        -2.2743307721        5.5403016700       -4.1096429978
 Cd         0.1552258413        4.6164378819       -0.9814446932
 Cd         2.6173372932        3.7540356816        2.4616712460
 Cd         4.3934694910        2.5024270436        5.6448470259
 Cd        -2.3839877703        3.0961459608       -7.5397423510
 Cd        -0.1308699873        1.7716472388       -4.3458913396
 Cd         2.1522040622        0.8595996928       -0.9600505658
 Cd         4.3027041934       -0.4425155449        2.5248589789
 Cd         6.4943132815       -0.6514444341        6.0110723312
 Cd         0.4032906214       -0.5920449882       -7.0625722312
 Cd         2.1504065746       -1.8410095193       -3.9631978812
 Cd         4.1282053355       -2.9764966895       -0.5499119195
 Cd         6.9189885741       -3.8001688729        2.8840486736
 Cd         1.0693858855       -4.7693596381       -6.7909688629
 Cd         3.6529341800       -5.7620820022       -3.6150795142
 Cd         5.7341856059       -6.5625995016       -0.3323817960
 Cd         2.4532379782        8.1225833618       -1.1556872380
 Cd         4.4025673150        7.2904811152        1.7928276254
 Cd         2.3800547108        5.2453457502       -4.8107637235
 Cd         4.8184663347        4.7191125514       -1.4277792117
 Cd         6.7589411702        3.8390778732        2.0295448973
 Cd         2.6210634084        2.7844913241       -7.7035228004
 Cd         4.8495943395        1.7843685348       -4.5225056138
 Cd         6.7261500983        1.0662237140       -0.9642295531
 Cd         8.8881450478        0.4141445330        2.4369093904
 Cd         4.3615782352       -0.9213178924       -7.7328888960
 Cd         6.7438649008       -1.9767569930       -4.2031112584
 Cd         8.5272445020       -2.6218905711       -0.2551455218
 Se        -9.0557725106        0.2424574140        0.9180313808
 Se        -6.3745872764       -0.6570220647        4.4225742627
 Se        -3.9358548519       -1.3506397678        8.2925868769
 Se        -6.5830028390       -3.7408669090        1.3890860046
 Se        -4.5802302415       -4.2716541219        4.8585926421
 Se        -4.6110671623       -7.7792240778        1.5343213278
 Se        -6.6407812351        3.9866809498        0.4586064126
 Se        -4.0705866514        2.6241591830        3.9150270775
 Se        -1.6315747320        2.0143859544        7.9219454430
 Se        -6.7106235468        0.9827493806       -3.1628202938
 Se        -4.4077684895       -0.2106461950        0.3970531668
 Se        -2.0534879979       -1.1190641497        4.2604482105
 Se         0.4069246601       -1.5676855049        8.0617057342
 Se        -4.4126107232       -3.1307459794       -2.8028288282
 Se        -2.2371864822       -4.0884616040        0.9473336128
 Se         0.1541797359       -4.8148952714        4.4843326207
 Se        -2.4147106009       -7.4199706225       -2.0529393442
 Se        -0.0662571417       -7.8800811154        1.3078284855
 Se        -4.5519687636        7.5920037884       -0.0122560791
 Se        -1.8482840651        6.3647212661        3.5390459072
 Se         0.4006735392        5.8241498358        7.5878867146
 Se        -4.4655945585        4.5529209660       -3.3484418515
 Se        -2.0798083538        3.7153034916        0.3451575142
 Se         0.4973892782        2.6967113851        3.7286137790
 Se         2.7724753484        1.9958260876        7.6298945277
 Se        -4.6126224962        2.0736182894       -6.9031574659
 Se        -2.2770211290        0.8531533747       -3.1284312065
 Se         0.0138865169       -0.1636477002        0.3858468104
 Se         2.3115473387       -1.3198431962        4.0017354986
 Se         4.8624545925       -1.8855864388        7.7371297607
 Se        -2.0700877949       -1.9675257511       -6.4603372509
 Se        -0.0447057629       -3.1582708631       -2.8090856920
 Se         2.2343306950       -4.2299664240        0.7817840723
 Se         4.8342987615       -4.9516929708        4.0974643468
 Se        -0.7556003326       -6.2829108386       -5.8406699955
 Se         1.9243057511       -7.4784768035       -2.6074198353
 Se         4.2543989663       -8.3809591814        0.7363809319
 Se         0.0386925703        7.3677075300       -0.4939635450
 Se         2.3791568525        6.5289221229        3.1400383851
 Se         0.0465974103        4.4270318221       -3.5936563407
 Se         2.5167269427        3.6273521599       -0.0581806204
 Se         4.7705604635        2.4670139639        3.1233546104
 Se         0.0435933033        1.9323944164       -6.9695738842
 Se         2.2733127965        0.7623703678       -3.6584263160
 Se         4.3816175435       -0.2841549253       -0.0177063702
 Se         6.9670500347       -1.1290204494        3.5565582379
 Se         2.2410869402       -2.2702007814       -6.6798205275
 Se         4.3723294721       -3.1971869108       -3.2130677403
 Se         6.4331938555       -4.1098532443        0.4136420186
 Se         4.8503033307        7.5509093293       -0.7463548497
 Se         4.8776288797        4.5477652435       -4.0091414448
 Se         7.0830986217        3.5950723552       -0.6434567968
 Se         4.7810064642        1.5273410534       -7.5566303287
 Se         6.9188050062        0.6130038217       -3.7081238627
 Se         9.1066871843       -0.0609359671       -0.0919647969
  C         6.9955771113       -6.9586634775       -2.8583426301
  H         7.7780160969       -7.1271873265       -3.6573399650
  O         5.8389952916       -6.4652991204       -3.1445809228
  O         7.2920676004       -7.2683568805       -1.6893132711
  C         3.3939431960       -6.2668607509       -6.9513074648
  H         4.3245440932       -6.8689211647       -7.0591687882
  O         3.0202466073       -5.7860511295       -5.7843136273
  O         2.6220129789       -6.1746538788       -7.9242101403
  C         6.3116555909       -2.9071154185       -7.4921130606
  H         7.0978863851       -3.7212906458       -7.4285512081
  O         6.0096715894       -2.3219711192       -6.3505932827
  O         5.9403243477       -2.4750431756       -8.6116316973
  C         8.9837561036       -3.3697375837       -3.4349055328
  H         9.9249943929       -3.8864043165       -3.1840078659
  O         8.5659407989       -3.4209184445       -4.6048832464
  O         8.2714489672       -2.6971151254       -2.5207012617
  C         9.7902109758       -4.6282247391        2.1768529346
  H        10.6284324694       -5.3337138149        2.3552924638
  O         9.7484501532       -4.1824896055        0.9942458601
  O         9.0219926648       -4.5705851174        3.1873629795
  C        -2.8252708508       -8.8894178348        5.3653894160
  H        -2.3915771747       -9.8892286280        5.4446685031
  O        -1.9808601030       -7.9304545651        5.0436955975
  O        -4.0908415257       -8.7280019527        5.4030844137
  C         3.0047406823       -8.6887063298        5.2919739424
  H         2.6853413808       -9.0312323512        6.2714246943
  O         1.9985977812       -8.3553887881        4.5599054594
  O         4.2197147413       -8.6069092298        4.9235206312
  C         2.8732291572       -5.7090624943        8.2322507888
  H         2.4095730423       -6.3582442170        8.9295273658
  O         2.2236878889       -4.8031284854        7.6183804854
  O         4.1525405945       -5.8988692439        8.1468427445
  C        -2.5324052264       -5.9090323801        8.5168983878
  H        -2.0058427467       -6.7599986745        9.0204193621
  O        -1.9189018681       -5.2527647032        7.5983339134
  O        -3.6521974131       -5.4981014961        8.8936623702
  C        -6.8661340661        2.3082426882        7.3884767521
  H        -7.2433530482        3.2983326111        7.3747512577
  O        -5.6189307919        2.1553364867        7.5292857639
  O        -7.6694328727        1.3672322100        7.2032576312
  C        -4.1128935570        6.2776012356        7.2258109093
  H        -5.2184092536        6.2949225170        7.4003980339
  O        -3.5215502414        5.2331222329        6.7794929280
  O        -3.5956064510        7.4679880815        7.3184340370
  C        -6.2584500423        7.1467273309        4.0778865765
  H        -7.2018864753        7.1620259062        4.6862261037
  O        -5.8042352338        6.0508881806        3.6277903665
  O        -5.6141473350        8.2227071687        3.8530055117
  C        -9.2670155991        2.9624473135        4.4549609073
  H        -9.7760873251        3.8307467380        4.7753730710
  O        -8.0580447847        3.0137717908        4.1153681461
  O       -10.0869615960        1.9755230626        4.3964141791
  C        -9.5997958208       -3.5202239981        4.2555074891
  H       -10.6284324694       -3.6062117458        4.7363993397
  O        -9.3836198173       -2.7271085544        3.2939504316
  O        -8.6749593009       -4.3055307223        4.7674147240
  C        -5.4063829718       -6.0836320759       -6.1576393485
  H        -6.0390997038       -6.5934387315       -6.8768176703
  O        -5.3157147411       -6.5042627408       -4.9638375967
  O        -4.7997118332       -5.0931497246       -6.6842330004
  C        -7.4812021438       -7.2683192216       -1.8337008205
  H        -7.8430239833       -7.7214409635       -2.7403108931
  O        -6.3847231004       -6.5596142310       -1.8855223803
  O        -8.0870004405       -7.4369608581       -0.7449951352
  C        -9.2637717352       -3.4248031045       -2.1287629167
  H        -9.5435102925       -4.0726156799       -2.9624854104
  O        -8.1685743898       -2.7562864935       -2.2769679175
  O        -9.8293124780       -3.4993302663       -1.0042472880
  C        -6.7198117275       -1.5155721631       -7.0057360974
  H        -7.7266400310       -1.9701098143       -7.1795729881
  O        -6.3208037730       -1.2812141421       -5.7891801227
  O        -6.0546670581       -1.2647410752       -8.0219575549
  C        -1.9610306020        5.6962737072       -7.4797868569
  H        -1.8068881661        6.7616764611       -7.4798700689
  O        -2.4613788677        5.1953402046       -6.4147373301
  O        -1.7592038190        5.0404242691       -8.5376948407
  C        -1.7153677193        9.0065729983       -3.7807068554
  H        -1.3518565997        9.2891789052       -4.8285272378
  O        -1.7735635219        7.7204009534       -3.5311974415
  O        -1.9589811591        9.8892286280       -2.9296575010
  C         2.5176986766        8.6527359013       -4.1276241396
  H         2.7356319561        9.0838176512       -5.0545617483
  O         2.0941304229        7.4607563111       -4.0382054964
  O         2.6632020791        9.4136986823       -3.1567247192
  C         1.7405814703        5.3615037054       -8.2026998584
  H         1.4592813282        6.4433815072       -8.3446733349
  O         2.2712544771        5.0744229803       -7.0359036782
  O         1.5374971892        4.4786315137       -9.0204193621
  C         9.4791869119        2.6134878200        3.9079418032
  H         9.6264681644        3.4611325178        4.5867541287
  O         8.5294682966        2.7206869475        3.0468687327
  O        10.1884170796        1.5361363159        4.0354546634
  C         6.6320899766        7.0427804887        3.3240585285
  H         7.5183451153        7.1103565644        4.0025867163
  O         6.4921259472        6.1579139584        2.4473334656
  O         5.8014508194        7.8970951585        3.5804466065
  C         4.7468288793        5.8510846562        6.9391041765
  H         5.6837062732        5.7110173508        7.4566454645
  O         4.3315486404        4.9881730889        6.0840680113
  O         4.1390624477        6.9214380767        7.1338855679
  C         7.5642974957        1.7429307679        7.1823006621
  H         8.1116275708        2.6102062210        7.6466333920
  O         6.7423080014        2.0330978891        6.2208765696
  O         7.8434776238        0.5800715711        7.5931108165
     227
 i =        1, time =        1.000, E =        -9.0507528025
 Cd        -8.6193390506        0.4796330491        3.4771793111
 Cd        -5.8715554978       -0.2571935005        7.1143865028
 Cd        -8.4082157960       -2.1541466855        0.3852263357
 Cd        -6.8927225906       -3.2917969302        3.9610987208
 Cd        -3.6901796450       -3.7003989708        7.3823623522
 Cd        -6.4419778336       -6.2357477141        0.4642814588
 Cd        -4.3123492425       -6.8296073664        3.9052327428
 Cd        -6.1163838441        3.8609260044        2.9055822130
 Cd        -3.6066298405        2.8812315461        6.5903851930
 Cd        -6.7534206828        1.1872345471       -0.3192213947
 Cd        -4.0444175133        0.0755172537        3.0501744893
 Cd        -1.7741901818       -0.3125883373        6.8335592269
 Cd        -6.3660914065       -1.4624671606       -3.4401697224
 Cd        -4.3613610579       -3.1217768622       -0.1745515792
 Cd        -2.2426065947       -3.6215856392        3.6336024069
 Cd         0.1786867004       -3.9615955767        7.0369305036
 Cd        -4.2693760351       -5.9881991508       -2.9988630980
 Cd        -2.2487270642       -6.7966047501        0.6791650773
 Cd         0.0677792728       -7.3030013889        3.8542355368
 Cd        -4.0802655801        7.4119304477        2.4182886368
 Cd        -1.6107928639        6.4879470664        6.2509415338
 Cd        -4.3325190512        4.8128115492       -0.6769436794
 Cd        -1.8303900400        3.6696004666        3.1589341214
 Cd         0.4898049886        3.1633512656        6.7205083249
 Cd        -4.5995960869        2.0001052284       -4.0890236637
 Cd        -2.1628926910        1.0181341373       -0.4517488692
 Cd         0.1384253521       -0.0681588276        3.1344037770
 Cd         2.6424446032       -0.6635573434        6.8958768766
 Cd        -4.1540709841       -0.5351475666       -6.9611271801
 Cd        -2.2031778339       -1.8490907349       -3.4900360560
 Cd         0.0358053497       -2.8474775097       -0.0250984813
 Cd         2.4397171640       -3.8215718354        3.5304582869
 Cd         4.5938401563       -4.2151970469        6.5946743396
 Cd        -2.6317003333       -4.5699625499       -6.0785366726
 Cd        -0.3609626854       -6.1210331173       -3.0631310774
 Cd         1.9864158900       -6.8523311590       -0.0374546542
 Cd         4.3578760298       -7.5050081570        3.0973874995
 Cd        -2.4320357566        8.2867380315       -1.2003581805
 Cd         0.1211450731        6.7911474885        2.0747610116
 Cd         2.2580972000        6.3879451820        5.9826045381
 Cd        -2.2740236430        5.5405553276       -4.1121264811
 Cd         0.1544588950        4.6148626880       -0.9823230714
 Cd         2.6165116847        3.7533728158        2.4610546971
 Cd         4.3939200682        2.5015261180        5.6447059904
 Cd        -2.3864552510        3.0936991043       -7.5399030641
 Cd        -0.1312611490        1.7709168449       -4.3474115265
 Cd         2.1531572724        0.8600304860       -0.9631983114
 Cd         4.3034760528       -0.4402573855        2.5248346891
 Cd         6.4920198753       -0.6517753043        6.0105046458
 Cd         0.4042379835       -0.5927830922       -7.0621406219
 Cd         2.1512987023       -1.8411039582       -3.9633275150
 Cd         4.1299713763       -2.9780133387       -0.5482312861
 Cd         6.9198167187       -3.7969671106        2.8855572095
 Cd         1.0695518429       -4.7691721209       -6.7906866629
 Cd         3.6506261180       -5.7625076078       -3.6177025478
 Cd         5.7329415737       -6.5640022946       -0.3327635183
 Cd         2.4550924272        8.1223114238       -1.1566102090
 Cd         4.4053509906        7.2898013810        1.7948209995
 Cd         2.3804035631        5.2452010963       -4.8087044228
 Cd         4.8189599388        4.7184617546       -1.4283823271
 Cd         6.7582302991        3.8401584183        2.0311385372
 Cd         2.6217692697        2.7829094135       -7.7033790431
 Cd         4.8493031014        1.7846818105       -4.5231470022
 Cd         6.7277012153        1.0649903928       -0.9631042349
 Cd         8.8867427812        0.4155724529        2.4348070095
 Cd         4.3617868681       -0.9226475153       -7.7309321841
 Cd         6.7427642696       -1.9756185368       -4.2012623223
 Cd         8.5291352680       -2.6208026758       -0.2527797308
 Se        -9.0548284660        0.2429304025        0.9182946547
 Se        -6.3727741327       -0.6564784750        4.4183193766
 Se        -3.9345122373       -1.3489278362        8.2966043618
 Se        -6.5831236748       -3.7425449916        1.3880632135
 Se        -4.5790804063       -4.2748690054        4.8597587235
 Se        -4.6122435801       -7.7766502282        1.5328230609
 Se        -6.6423186413        3.9855678738        0.4576506330
 Se        -4.0719793815        2.6208444405        3.9143220433
 Se        -1.6332975518        2.0117692412        7.9252000381
 Se        -6.7117592264        0.9829462696       -3.1654456555
 Se        -4.4070883292       -0.2111985506        0.3948840602
 Se        -2.0531217197       -1.1153327982        4.2594049472
 Se         0.4059975105       -1.5661475301        8.0651253530
 Se        -4.4160896715       -3.1300232612       -2.8046943581
 Se        -2.2374238387       -4.0915955634        0.9472111666
 Se         0.1530454518       -4.8127472662        4.4858185931
 Se        -2.4165590766       -7.4206823926       -2.0539399601
 Se        -0.0669242714       -7.8792053627        1.3095459184
 Se        -4.5522053602        7.5948549446       -0.0126465313
 Se        -1.8468102660        6.3633138365        3.5401201730
 Se         0.4037127786        5.8261540255        7.5859670874
 Se        -4.4660962309        4.5539803990       -3.3489555122
 Se        -2.0809843838        3.7152455418        0.3431774561
 Se         0.4982458576        2.6969855476        3.7287088235
 Se         2.7718012758        1.9958767816        7.6262649877
 Se        -4.6132465388        2.0747838346       -6.9049188853
 Se        -2.2789044411        0.8535205844       -3.1261064919
 Se         0.0145701321       -0.1632263971        0.3854054578
 Se         2.3129734646       -1.3188948269        3.9990479302
 Se         4.8631735128       -1.8842964420        7.7354648338
 Se        -2.0701835957       -1.9664249360       -6.4603904484
 Se        -0.0447014953       -3.1599550801       -2.8087893572
 Se         2.2323189616       -4.2314742484        0.7809438390
 Se         4.8362471443       -4.9531231219        4.0967251258
 Se        -0.7551489330       -6.2848978237       -5.8413959325
 Se         1.9250151362       -7.4790969253       -2.6076531017
 Se         4.2593561963       -8.3792586782        0.7363735590
 Se         0.0356288124        7.3686407404       -0.4913514605
 Se         2.3809437302        6.5252149458        3.1425276152
 Se         0.0437374216        4.4288356160       -3.5940222684
 Se         2.5163970430        3.6274370581       -0.0568946588
 Se         4.7727320054        2.4661619611        3.1253184070
 Se         0.0455163761        1.9300127920       -6.9705487865
 Se         2.2758514541        0.7648591253       -3.6570741320
 Se         4.3766752920       -0.2853654244       -0.0178415579
 Se         6.9677280062       -1.1294428795        3.5582162234
 Se         2.2370384645       -2.2682248329       -6.6837844351
 Se         4.3737620174       -3.1974940614       -3.2156774580
 Se         6.4331537380       -4.1116968828        0.4129293432
 Se         4.8516262005        7.5524234904       -0.7459480870
 Se         4.8775037559        4.5489985245       -4.0122811843
 Se         7.0856425560        3.5934998663       -0.6428978729
 Se         4.7817701427        1.5264633190       -7.5555487297
 Se         6.9186219268        0.6112201932       -3.7073699014
 Se         9.1069121225       -0.0626802066       -0.0923643518
  C         6.9966785529       -6.9498411243       -2.8612695012
  H         7.7649322095       -7.1224747738       -3.6684216540
  O         5.8440945180       -6.4672686898       -3.1400776143
  O         7.2887330178       -7.2742305100       -1.6937861792
  C         3.3950653086       -6.2673068003       -6.9491815958
  H         4.3444066225       -6.8936096686       -7.0753272229
  O         3.0188415391       -5.7909247870       -5.7821351751
  O         2.6177639828       -6.1689603697       -7.9240241214
  C         6.3106279664       -2.9078502883       -7.4910568034
  H         7.1299137504       -3.7048862282       -7.4466889051
  O         6.0085244893       -2.3182223356       -6.3475552446
  O         5.9394136003       -2.4742913354       -8.6124981404
  C         8.9774491742       -3.3708805012       -3.4296492326
  H         9.9250180562       -3.8774829974       -3.1826003730
  O         8.5683403171       -3.4149242966       -4.6046352074
  O         8.2717695529       -2.6967242206       -2.5201441275
  C         9.7980754260       -4.6252012085        2.1809984006
  H        10.6408655401       -5.3318691344        2.3887999993
  O         9.7471939345       -4.1805700882        0.9926521827
  O         9.0287524571       -4.5681856928        3.1870695738
  C        -2.8217314416       -8.8884390629        5.3598597261
  H        -2.4154187803       -9.9024293192        5.4343946394
  O        -1.9847794363       -7.9306692079        5.0423567013
  O        -4.0904593361       -8.7274851250        5.4044527059
  C         2.9969220870       -8.6916235113        5.2874264797
  H         2.6967725338       -9.0398269484        6.2934215078
  O         1.9994355697       -8.3579287614        4.5594619991
  O         4.2233448219       -8.6007900118        4.9158216398
  C         2.8793048315       -5.7053269128        8.2324286230
  H         2.3955873073       -6.3773024893        8.9303283437
  O         2.2190968079       -4.8088956331        7.6163973326
  O         4.1498184011       -5.9035548757        8.1536723772
  C        -2.5347134768       -5.9173477466        8.5220079738
  H        -2.0052498086       -6.7390725628        9.0096019785
  O        -1.9213707425       -5.2584162047        7.5983556481
  O        -3.6522409472       -5.5084827562        8.8928265568
  C        -6.8630682143        2.3027058050        7.3892082710
  H        -7.2086193538        3.3071349018        7.3885257928
  O        -5.6213920969        2.1591280876        7.5337560572
  O        -7.6695997922        1.3703093804        7.1999600361
  C        -4.1169961128        6.2828049922        7.2281927426
  H        -5.2418933127        6.2896177269        7.3832000201
  O        -3.5267591222        5.2290809498        6.7738703695
  O        -3.5911235416        7.4673519736        7.3180789619
  C        -6.2567436752        7.1462446416        4.0780921889
  H        -7.2111390447        7.1649409639        4.6689854642
  O        -5.8090637324        6.0479500106        3.6279281223
  O        -5.6128907747        8.2207919980        3.8488379152
  C        -9.2742224341        2.9617581134        4.4604765669
  H        -9.7855372140        3.8838940690        4.7760086716
  O        -8.0588680661        3.0118972794        4.1193067114
  O       -10.0811956549        1.9793627163        4.3922544554
  C        -9.6032812712       -3.5282210961        4.2551679343
  H       -10.5971720209       -3.6001750875        4.7566807035
  O        -9.3833223459       -2.7227882062        3.2942768794
  O        -8.6788104796       -4.3018015720        4.7630766490
  C        -5.4081382273       -6.0792356206       -6.1561963527
  H        -6.0546960796       -6.5859836395       -6.8890942905
  O        -5.3111073412       -6.5041298659       -4.9653280745
  O        -4.7985246204       -5.0927749583       -6.6853428314
  C        -7.4874948680       -7.2705760377       -1.8347936731
  H        -7.8388434959       -7.7173330376       -2.7530342297
  O        -6.3887875427       -6.5550156940       -1.8843633969
  O        -8.0717545716       -7.4409583927       -0.7458762905
  C        -9.2562809025       -3.4269970924       -2.1219767248
  H        -9.5270787848       -4.0663584857       -2.9594189931
  O        -8.1698591821       -2.7554259572       -2.2727004685
  O        -9.8242684891       -3.4940058825       -1.0092505628
  C        -6.7207110993       -1.5101426262       -7.0046026702
  H        -7.7450574417       -1.9674181007       -7.1698505571
  O        -6.3198514857       -1.2781307124       -5.7991236265
  O        -6.0634270790       -1.2635157842       -8.0155846031
  C        -1.9629110124        5.6954909249       -7.4853204315
  H        -1.7770888886        6.7764005651       -7.4923242406
  O        -2.4611912192        5.1867799910       -6.4087911100
  O        -1.7563626140        5.0405643294       -8.5284323498
  C        -1.7168966739        9.0075131414       -3.7839136035
  H        -1.3493405476        9.2660238074       -4.8465614694
  O        -1.7700294069        7.7195969718       -3.5246490203
  O        -1.9637416147        9.8896326498       -2.9408935324
  C         2.5062433437        8.6538911832       -4.1272905362
  H         2.7131102182        9.0638249498       -5.0476060874
  O         2.0944566661        7.4533368316       -4.0306941595
  O         2.6627588753        9.4112133351       -3.1553113149
  C         1.7411630710        5.3672433379       -8.1968705583
  H         1.4358383610        6.4416008070       -8.3632925476
  O         2.2781416990        5.0766570352       -7.0409108759
  O         1.5312180113        4.4834183299       -9.0176289357
  C         9.4768910356        2.6096285707        3.8999973109
  H         9.6131090334        3.4671477718        4.5843902861
  O         8.5280866302        2.7173683814        3.0492511011
  O        10.1886036042        1.5401994965        4.0331670807
  C         6.6326633676        7.0383113757        3.3282003158
  H         7.5082674956        7.1289998248        4.0070788575
  O         6.4945213448        6.1604838358        2.4465931145
  O         5.7955552493        7.9030405062        3.5813677027
  C         4.7447654145        5.8524858740        6.9354049025
  H         5.7085862008        5.7040540943        7.4370666698
  O         4.3286267739        4.9885680914        6.0815374426
  O         4.1458128738        6.9224502260        7.1372578358
  C         7.5603392926        1.7452806396        7.1878905258
  H         8.1158840311        2.6116602203        7.6593692779
  O         6.7459211148        2.0302436012        6.2244774881
  O         7.8435497262        0.5821866991        7.5895726891
     227
 i =        2, time =        2.000, E =        -9.0661595830
 Cd        -8.6169839684        0.4782806012        3.4768050334
 Cd        -5.8708430479       -0.2576489762        7.1136096279
 Cd        -8.4088662703       -2.1552222392        0.3836413558
 Cd        -6.8896664320       -3.2938867230        3.9621584419