     227
 i =        0, time =        0.000, E =       -24.5255537364
 Cd        -8.6216924880        0.4810107428        3.4775887729
 Cd        -5.8723589632       -0.2566559957        7.1151373767
 Cd        -8.4076147924       -2.1531404527        0.3867588804
 Cd        -6.8957642261       -3.2896665849        3.9600318291
 Cd        -3.6930098048       -3.6992689615        7.3819491709
 Cd        -6.4429261463       -6.2347087238        0.4622469067
 Cd        -4.3123952394       -6.8285875372        3.9039095072
 Cd        -6.1141073353        3.8626235599        2.9066844924
 Cd        -3.6048790416        2.8797284733        6.5917986711
 Cd        -6.7531255596        1.1841266196       -0.3182182747
 Cd        -4.0437606329        0.0729837467        3.0511954168
 Cd        -1.7753257667       -0.3121054857        6.8316599018
 Cd        -6.3661028473       -1.4630135273       -3.4383357626
 Cd        -4.3602814436       -3.1214810613       -0.1759283953
 Cd        -2.2424276819       -3.6242998489        3.6335413818
 Cd         0.1757294635       -3.9625201566        7.0364714760
 Cd        -4.2692200317       -5.9860442556       -3.0005266361
 Cd        -2.2482225396       -6.7972628816        0.6786391664
 Cd         0.0669003827       -7.3030327295        3.8545421700
 Cd        -4.0792754193        7.4105475565        2.4175118797
 Cd        -1.6116442377        6.4880648240        6.2478272306
 Cd        -4.3308002626        4.8127262164       -0.6762739309
 Cd        -1.8326132452        3.6694977750        3.1598212265
 Cd         0.4939817277        3.1637060931        6.7202662426
 Cd        -4.5980154021        1.9988297698       -4.0880170010
 Cd        -2.1651194586        1.0165564496       -0.4536921834
 Cd         0.1376109507       -0.0659106884        3.1336818174
 Cd         2.6419074521       -0.6636939286        6.8958319365
 Cd        -4.1515129292       -0.5348426091       -6.9620217917
 Cd        -2.2012490343       -1.8491984656       -3.4894107829
 Cd         0.0359311218       -2.8494155653       -0.0264680683
 Cd         2.4407298775       -3.8224684908        3.5289587884
 Cd         4.5907434619       -4.2169180472        6.5928471603
 Cd        -2.6321953796       -4.5685798778       -6.0773989300
 Cd        -0.3638438279       -6.1221236347       -3.0620735359
 Cd         1.9882729153       -6.8506852632       -0.0376753302
 Cd         4.3604701588       -7.5063202656        3.0981086138
 Cd        -2.4313710890        8.2839908015       -1.2010761441
 Cd         0.1210964618        6.7915494583        2.0748938605
 Cd         2.2602783261        6.3879934074        5.9824457591
 Cd        -2.2743307721        5.5403016700       -4.1096429978
 Cd         0.1552258413        4.6164378819       -0.9814446932
 Cd         2.6173372932        3.7540356816        2.4616712460
 Cd         4.3934694910        2.5024270436        5.6448470259
 Cd        -2.3839877703        3.0961459608       -7.5397423510
 Cd        -0.1308699873        1.7716472388       -4.3458913396
 Cd         2.1522040622        0.8595996928       -0.9600505658
 Cd         4.3027041934       -0.4425155449        2.5248589789
 Cd         6.4943132815       -0.6514444341        6.0110723312
 Cd         0.4032906214       -0.5920449882       -7.0625722312
 Cd         2.1504065746       -1.8410095193       -3.9631978812
 Cd         4.1282053355       -2.9764966895       -0.5499119195
 Cd         6.9189885741       -3.8001688729        2.8840486736
 Cd         1.0693858855       -4.7693596381       -6.7909688629
 Cd         3.6529341800       -5.7620820022       -3.6150795142
 Cd         5.7341856059       -6.5625995016       -0.3323817960
 Cd         2.4532379782        8.1225833618       -1.1556872380
 Cd         4.4025673150        7.2904811152        1.7928276254
 Cd         2.3800547108        5.2453457502       -4.8107637235
 Cd         4.8184663347        4.7191125514       -1.4277792117
 Cd         6.7589411702        3.8390778732        2.0295448973
 Cd         2.6210634084        2.7844913241       -7.7035228004
 Cd         4.8495943395        1.7843685348       -4.5225056138
 Cd         6.7261500983        1.0662237140       -0.9642295531
 Cd         8.8881450478        0.4141445330        2.4369093904
 Cd         4.3615782352       -0.9213178924       -7.7328888960
 Cd         6.7438649008       -1.9767569930       -4.2031112584
 Cd         8.5272445020       -2.6218905711       -0.2551455218
 Se        -9.0557725106        0.2424574140        0.9180313808
 Se        -6.3745872764       -0.6570220647        4.4225742627
 Se        -3.9358548519       -1.3506397678        8.2925868769
 Se        -6.5830028390       -3.7408669090        1.3890860046
 Se        -4.5802302415       -4.2716541219        4.8585926421
 Se        -4.6110671623       -7.7792240778        1.5343213278
 Se        -6.6407812351        3.9866809498        0.4586064126
 Se        -4.0705866514        2.6241591830        3.9150270775
 Se        -1.6315747320        2.0143859544        7.9219454430
 Se        -6.7106235468        0.9827493806       -3.1628202938
 Se        -4.4077684895       -0.2106461950        0.3970531668
 Se        -2.0534879979       -1.1190641497        4.2604482105
 Se         0.4069246601       -1.5676855049        8.0617057342
 Se        -4.4126107232       -3.1307459794       -2.8028288282
 Se        -2.2371864822       -4.0884616040        0.9473336128
 Se         0.1541797359       -4.8148952714        4.4843326207
 Se        -2.4147106009       -7.4199706225       -2.0529393442
 Se        -0.0662571417       -7.8800811154        1.3078284855
 Se        -4.5519687636        7.5920037884       -0.0122560791
 Se        -1.8482840651        6.3647212661        3.5390459072
 Se         0.4006735392        5.8241498358        7.5878867146
 Se        -4.4655945585        4.5529209660       -3.3484418515
 Se        -2.0798083538        3.7153034916        0.3451575142
 Se         0.4973892782        2.6967113851        3.7286137790
 Se         2.7724753484        1.9958260876        7.6298945277
 Se        -4.6126224962        2.0736182894       -6.9031574659
 Se        -2.2770211290        0.8531533747       -3.1284312065
 Se         0.0138865169       -0.1636477002        0.3858468104
 Se         2.3115473387       -1.3198431962        4.0017354986
 Se         4.8624545925       -1.8855864388        7.7371297607
 Se        -2.0700877949       -1.9675257511       -6.4603372509
 Se        -0.0447057629       -3.1582708631       -2.8090856920
 Se         2.2343306950       -4.2299664240        0.7817840723
 Se         4.8342987615       -4.9516929708        4.0974643468
 Se        -0.7556003326       -6.2829108386       -5.8406699955
 Se         1.9243057511       -7.4784768035       -2.6074198353
 Se         4.2543989663       -8.3809591814        0.7363809319
 Se         0.0386925703        7.3677075300       -0.4939635450
 Se         2.3791568525        6.5289221229        3.1400383851
 Se         0.0465974103        4.4270318221       -3.5936563407
 Se         2.5167269427        3.6273521599       -0.0581806204
 Se         4.7705604635        2.4670139639        3.1233546104
 Se         0.0435933033        1.9323944164       -6.9695738842
 Se         2.2733127965        0.7623703678       -3.6584263160
 Se         4.3816175435       -0.2841549253       -0.0177063702
 Se         6.9670500347       -1.1290204494        3.5565582379
 Se         2.2410869402       -2.2702007814       -6.6798205275
 Se         4.3723294721       -3.1971869108       -3.2130677403
 Se         6.4331938555       -4.1098532443        0.4136420186
 Se         4.8503033307        7.5509093293       -0.7463548497
 Se         4.8776288797        4.5477652435       -4.0091414448
 Se         7.0830986217        3.5950723552       -0.6434567968
 Se         4.7810064642        1.5273410534       -7.5566303287
 Se         6.9188050062        0.6130038217       -3.7081238627
 Se         9.1066871843       -0.0609359671       -0.0919647969
  C         6.9955771113       -6.9586634775       -2.8583426301
  H         7.7780160969       -7.1271873265       -3.6573399650
  O         5.8389952916       -6.4652991204       -3.1445809228
  O         7.2920676004       -7.2683568805       -1.6893132711
  C         3.3939431960       -6.2668607509       -6.9513074648
  H         4.3245440932       -6.8689211647       -7.0591687882
  O         3.0202466073       -5.7860511295       -5.7843136273
  O         2.6220129789       -6.1746538788       -7.9242101403
  C         6.3116555909       -2.9071154185       -7.4921130606
  H         7.0978863851       -3.7212906458       -7.4285512081
  O         6.0096715894       -2.3219711192       -6.3505932827
  O         5.9403243477       -2.4750431756       -8.6116316973
  C         8.9837561036       -3.3697375837       -3.4349055328
  H         9.9249943929       -3.8864043165       -3.1840078659
  O         8.5659407989       -3.4209184445       -4.6048832464
  O         8.2714489672       -2.6971151254       -2.5207012617
  C         9.7902109758       -4.6282247391        2.1768529346
  H        10.6284324694       -5.3337138149        2.3552924638
  O         9.7484501532       -4.1824896055        0.9942458601
  O         9.0219926648       -4.5705851174        3.1873629795
  C        -2.8252708508       -8.8894178348        5.3653894160
  H        -2.3915771747       -9.8892286280        5.4446685031
  O        -1.9808601030       -7.9304545651        5.0436955975
  O        -4.0908415257       -8.7280019527        5.4030844137
  C         3.0047406823       -8.6887063298        5.2919739424
  H         2.6853413808       -9.0312323512        6.2714246943
  O         1.9985977812       -8.3553887881        4.5599054594
  O         4.2197147413       -8.6069092298        4.9235206312
  C         2.8732291572       -5.7090624943        8.2322507888
  H         2.4095730423       -6.3582442170        8.9295273658
  O         2.2236878889       -4.8031284854        7.6183804854
  O         4.1525405945       -5.8988692439        8.1468427445
  C        -2.5324052264       -5.9090323801        8.5168983878
  H        -2.0058427467       -6.7599986745        9.0204193621
  O        -1.9189018681       -5.2527647032        7.5983339134
  O        -3.6521974131       -5.4981014961        8.8936623702
  C        -6.8661340661        2.3082426882        7.3884767521
  H        -7.2433530482        3.2983326111        7.3747512577
  O        -5.6189307919        2.1553364867        7.5292857639
  O        -7.6694328727        1.3672322100        7.2032576312
  C        -4.1128935570        6.2776012356        7.2258109093
  H        -5.2184092536        6.2949225170        7.4003980339
  O        -3.5215502414        5.2331222329        6.7794929280
  O        -3.5956064510        7.4679880815        7.3184340370
  C        -6.2584500423        7.1467273309        4.0778865765
  H        -7.2018864753        7.1620259062        4.6862261037
  O        -5.8042352338        6.0508881806        3.6277903665
  O        -5.6141473350        8.2227071687        3.8530055117
  C        -9.2670155991        2.9624473135        4.4549609073
  H        -9.7760873251        3.8307467380        4.7753730710
  O        -8.0580447847        3.0137717908        4.1153681461
  O       -10.0869615960        1.9755230626        4.3964141791
  C        -9.5997958208       -3.5202239981        4.2555074891
  H       -10.6284324694       -3.6062117458        4.7363993397
  O        -9.3836198173       -2.7271085544        3.2939504316
  O        -8.6749593009       -4.3055307223        4.7674147240
  C        -5.4063829718       -6.0836320759       -6.1576393485
  H        -6.0390997038       -6.5934387315       -6.8768176703
  O        -5.3157147411       -6.5042627408       -4.9638375967
  O        -4.7997118332       -5.0931497246       -6.6842330004
  C        -7.4812021438       -7.2683192216       -1.8337008205
  H        -7.8430239833       -7.7214409635       -2.7403108931
  O        -6.3847231004       -6.5596142310       -1.8855223803
  O        -8.0870004405       -7.4369608581       -0.7449951352
  C        -9.2637717352       -3.4248031045       -2.1287629167
  H        -9.5435102925       -4.0726156799       -2.9624854104
  O        -8.1685743898       -2.7562864935       -2.2769679175
  O        -9.8293124780       -3.4993302663       -1.0042472880
  C        -6.7198117275       -1.5155721631       -7.0057360974
  H        -7.7266400310       -1.9701098143       -7.1795729881
  O        -6.3208037730       -1.2812141421       -5.7891801227
  O        -6.0546670581       -1.2647410752       -8.0219575549
  C        -1.9610306020        5.6962737072       -7.4797868569
  H        -1.8068881661        6.7616764611       -7.4798700689
  O        -2.4613788677        5.1953402046       -6.4147373301
  O        -1.7592038190        5.0404242691       -8.5376948407
  C        -1.7153677193        9.0065729983       -3.7807068554
  H        -1.3518565997        9.2891789052       -4.8285272378
  O        -1.7735635219        7.7204009534       -3.5311974415
  O        -1.9589811591        9.8892286280       -2.9296575010
  C         2.5176986766        8.6527359013       -4.1276241396
  H         2.7356319561        9.0838176512       -5.0545617483
  O         2.0941304229        7.4607563111       -4.0382054964
  O         2.6632020791        9.4136986823       -3.1567247192
  C         1.7405814703        5.3615037054       -8.2026998584
  H         1.4592813282        6.4433815072       -8.3446733349
  O         2.2712544771        5.0744229803       -7.0359036782
  O         1.5374971892        4.4786315137       -9.0204193621
  C         9.4791869119        2.6134878200        3.9079418032
  H         9.6264681644        3.4611325178        4.5867541287
  O         8.5294682966        2.7206869475        3.0468687327
  O        10.1884170796        1.5361363159        4.0354546634
  C         6.6320899766        7.0427804887        3.3240585285
  H         7.5183451153        7.1103565644        4.0025867163
  O         6.4921259472        6.1579139584        2.4473334656
  O         5.8014508194        7.8970951585        3.5804466065
  C         4.7468288793        5.8510846562        6.9391041765
  H         5.6837062732        5.7110173508        7.4566454645
  O         4.3315486404        4.9881730889        6.0840680113
  O         4.1390624477        6.9214380767        7.1338855679
  C         7.5642974957        1.7429307679        7.1823006621
  H         8.1116275708        2.6102062210        7.6466333920
  O         6.7423080014        2.0330978891        6.2208765696
  O         7.8434776238        0.5800715711        7.5931108165
     227
 i =        1, time =        1.000, E =       -24.5361107970
 Cd        -8.6193517660        0.4796698723        3.4771580845
 Cd        -5.8715173253       -0.2571742793        7.1144150879
 Cd        -8.4082446229       -2.1541309812        0.3852349419
 Cd        -6.8927480802       -3.2918182558        3.9610904056
 Cd        -3.6901777885       -3.7003944286        7.3824212583
 Cd        -6.4419847006       -6.2357831178        0.4642514880
 Cd        -4.3123535171       -6.8296574642        3.9052120612
 Cd        -6.1163965287        3.8609414957        2.9055514089
 Cd        -3.6066271241        2.8812347803        6.5904489403
 Cd        -6.7534509597        1.1872474688       -0.3192312690
 Cd        -4.0444397383        0.0755208580        3.0502020768
 Cd        -1.7741788726       -0.3125618327        6.8336341636
 Cd        -6.3661170452       -1.4623993264       -3.4401870179
 Cd        -4.3613471320       -3.1217921834       -0.1745521404
 Cd        -2.2426215579       -3.6215541148        3.6336250431
 Cd         0.1787313101       -3.9615914842        7.0369585411
 Cd        -4.2693872476       -5.9882785332       -2.9988726110
 Cd        -2.2486836254       -6.7966660376        0.6791576491
 Cd         0.0677987754       -7.3029992595        3.8542310273
 Cd        -4.0803490563        7.4119345614        2.4182535275
 Cd        -1.6107959191        6.4879106233        6.2510081597
 Cd        -4.3325696244        4.8128110855       -0.6769713359
 Cd        -1.8304141496        3.6695970927        3.1589510738
 Cd         0.4898071504        3.1633229142        6.7205876422
 Cd        -4.5996887663        2.0001316326       -4.0890024805
 Cd        -2.1629105531        1.0181223851       -0.4517688549
 Cd         0.1384394930       -0.0681818392        3.1344373518
 Cd         2.6424379530       -0.6635636462        6.8959633452
 Cd        -4.1541221324       -0.5351572220       -6.9611375104
 Cd        -2.2031904589       -1.8491126240       -3.4900241785
 Cd         0.0358084593       -2.8475162356       -0.0251013803
 Cd         2.4397065630       -3.8215460922        3.5304765351
 Cd         4.5938262280       -4.2152103172        6.5947091070
 Cd        -2.6317008563       -4.5700072096       -6.0785659910
 Cd        -0.3609702124       -6.1211230964       -3.0631448188
 Cd         1.9863931086       -6.8523889471       -0.0374720844
 Cd         4.3578537313       -7.5051005801        3.0974265933
 Cd        -2.4320698347        8.2867261814       -1.2003852702
 Cd         0.1211454241        6.7911492415        2.0748188962
 Cd         2.2581336573        6.3879287927        5.9827087980
 Cd        -2.2740556801        5.5405484492       -4.1121407285
 Cd         0.1544559013        4.6148804989       -0.9823741812
 Cd         2.6165406583        3.7533351200        2.4610050358
 Cd         4.3939469581        2.5015521342        5.6447026694
 Cd        -2.3865030524        3.0937660327       -7.5398835812
 Cd        -0.1312657301        1.7709500449       -4.3474347144
 Cd         2.1532088006        0.8600229759       -0.9632172595
 Cd         4.3034828302       -0.4402479706        2.5247869416
 Cd         6.4920548459       -0.6517678953        6.0104963452
 Cd         0.4042773785       -0.5927812409       -7.0621285531
 Cd         2.1513469352       -1.8411034782       -3.9633497940
 Cd         4.1300068992       -2.9780344235       -0.5482423226
 Cd         6.9198366844       -3.7969889493        2.8855045670
 Cd         1.0695959052       -4.7692574228       -6.7906566181
 Cd         3.6506538281       -5.7625422605       -3.6177475925
 Cd         5.7330076731       -6.5640582028       -0.3328103346
 Cd         2.4551483988        8.1222986112       -1.1566632419
 Cd         4.4053840992        7.2897867089        1.7948505765
 Cd         2.3804131184        5.2452465601       -4.8087452952
 Cd         4.8190259502        4.7184618416       -1.4284473441
 Cd         6.7582562272        3.8401509345        2.0311513670
 Cd         2.6218199687        2.7829361396       -7.7033840945
 Cd         4.8494056953        1.7846682088       -4.5231183292
 Cd         6.7277650077        1.0650440921       -0.9631342620
 Cd         8.8867496462        0.4156004007        2.4347878218
 Cd         4.3618535649       -0.9226087082       -7.7309048479
 Cd         6.7428065079       -1.9756303253       -4.2012793237
 Cd         8.5291351287       -2.6208125468       -0.2528233630
 Se        -9.0546694960        0.2428026321        0.9183490810
 Se        -6.3727310339       -0.6565219554        4.4182889637
 Se        -3.9345653607       -1.3489873833        8.2963971738
 Se        -6.5830963150       -3.7425261579        1.3880769050
 Se        -4.5790384274       -4.2748285646        4.8596990869
 Se        -4.6122159347       -7.7764464787        1.5328767874
 Se        -6.6421569406        3.9855242032        0.4577597270
 Se        -4.0718969734        2.6208432996        3.9142502057
 Se        -1.6333489630        2.0117146227        7.9249516011
 Se        -6.7115452564        0.9828240916       -3.1654492834
 Se        -4.4070246790       -0.2111747929        0.3949231320
 Se        -2.0531291169       -1.1153539124        4.2593424769
 Se         0.4060020381       -1.5661924003        8.0649579467
 Se        -4.4160156365       -3.1299359813       -2.8046249122
 Se        -2.2374569590       -4.0915616744        0.9472001485
 Se         0.1530715036       -4.8127410506        4.4857660528
 Se        -2.4165771221       -7.4204650116       -2.0539699737
 Se        -0.0669870931       -7.8789981001        1.3095625973
 Se        -4.5519747609        7.5948114164       -0.0125384308
 Se        -1.8466672135        6.3632836035        3.5400049748
 Se         0.4036870617        5.8261753723        7.5857022893
 Se        -4.4659122600        4.5539273280       -3.3489308617
 Se        -2.0809528457        3.7152448335        0.3431589477
 Se         0.4981834162        2.6970273102        3.7286351891
 Se         2.7717741244        1.9958413438        7.6260610004
 Se        -4.6130400339        2.0747108122       -6.9048874783
 Se        -2.2788429356        0.8534899957       -3.1260956730
 Se         0.0145423700       -0.1632259310        0.3853903853
 Se         2.3129803705       -1.3189404428        3.9989449881
 Se         4.8631261848       -1.8843202333        7.7352647755
 Se        -2.0702367091       -1.9663977766       -6.4603459486
 Se        -0.0447555280       -3.1598710640       -2.8087796834
 Se         2.2323236697       -4.2314054647        0.7809187154
 Se         4.8362173612       -4.9530342917        4.0967190275
 Se        -0.7551546633       -6.2846604654       -5.8413875290
 Se         1.9249964823       -7.4788998169       -2.6075699314
 Se         4.2593828178       -8.3790398366        0.7364646002
 Se         0.0356791930        7.3685672054       -0.4912434110
 Se         2.3808569446        6.5252168319        3.1423885056
 Se         0.0437020588        4.4287798009       -3.5939585486
 Se         2.5163393372        3.6274513263       -0.0567768522
 Se         4.7726343499        2.4662039516        3.1253456615
 Se         0.0455218398        1.9298358569       -6.9704251821
 Se         2.2757586417        0.7647906616       -3.6570248971
 Se         4.3765905776       -0.2853807638       -0.0177420632
 Se         6.9676669847       -1.1294525313        3.5582773653
 Se         2.2368851094       -2.2680775708       -6.6837439727
 Se         4.3736401803       -3.1974659901       -3.2155961549
 Se         6.4331018758       -4.1116646436        0.4130499774
 Se         4.8513849357        7.5523949387       -0.7458283901
 Se         4.8773901246        4.5489357486       -4.0121533674
 Se         7.0854746701        3.5933964151       -0.6428469654
 Se         4.7815421533        1.5263617087       -7.5555371403
 Se         6.9184173089        0.6112211598       -3.7073395235
 Se         9.1067864403       -0.0627449100       -0.0922396843
  C         6.9966632563       -6.9497575479       -2.8612733738
  H         7.7649322095       -7.1224747738       -3.6684216540
  O         5.8437945907       -6.4671660452       -3.1400184205
  O         7.2882135367       -7.2739524698       -1.6933569423
  C         3.3951025187       -6.2672610498       -6.9491363646
  H         4.3444066225       -6.8936096686       -7.0753272229
  O         3.0187616941       -5.7907405562       -5.7817691709
  O         2.6175592925       -6.1687223925       -7.9238574754
  C         6.3106263491       -2.9078783294       -7.4909629264
  H         7.1299137504       -3.7048862282       -7.4466889051
  O         6.0085192460       -2.3180722758       -6.3472931897
  O         5.9391683443       -2.4740798692       -8.6123455159
  C         8.9773820978       -3.3708974034       -3.4296163656
  H         9.9250180562       -3.8774829974       -3.1826003730
  O         8.5680556455       -3.4147237847       -4.6045330281
  O         8.2715773630       -2.6966767372       -2.5199252470
  C         9.7980120116       -4.6251763238        2.1809732456
  H        10.6408655401       -5.3318691344        2.3887999993
  O         9.7469414228       -4.1803093312        0.9925227811
  O         9.0282525101       -4.5679801963        3.1869917442
  C        -2.8217061547       -8.8883727018        5.3598601621
  H        -2.4154187803       -9.9024293192        5.4343946394
  O        -1.9846956971       -7.9305302746        5.0422109300
  O        -4.0904448054       -8.7272182036        5.4042843669
  C         2.9969045775       -8.6915535162        5.2874373208
  H         2.6967725338       -9.0398269484        6.2934215078
  O         1.9992170957       -8.3576831439        4.5593280908
  O         4.2233736688       -8.6002954274        4.9150640166
  C         2.8792695178       -5.7053315036        8.2323744640
  H         2.3955873073       -6.3773024893        8.9303283437
  O         2.2188502041       -4.8087226797        7.6161545932
  O         4.1498469993       -5.9032828159        8.1533587000
  C        -2.5346971500       -5.9173557249        8.5219272667
  H        -2.0052498086       -6.7390725628        9.0096019785
  O        -1.9214621478       -5.2580915051        7.5982762008
  O        -3.6522335665       -5.5082046850        8.8925488196
  C        -6.8630544139        2.3027166503        7.3891162190
  H        -7.2086193538        3.3071349018        7.3885257928
  O        -5.6211384899        2.1590141776        7.5335338676
  O        -7.6693461668        1.3701245065        7.1999311868
  C        -4.1170179491        6.2827635659        7.2281288504
  H        -5.2418933127        6.2896177269        7.3832000201
  O        -3.5264864870        5.2289530133        6.7737165896
  O        -3.5908993818        7.4672190594        7.3179056114
  C        -6.2567122053        7.1461877716        4.0781158496
  H        -7.2111390447        7.1649409639        4.6689854642
  O        -5.8089256423        6.0477405720        3.6277691239
  O        -5.6124765241        8.2205364938        3.8485161785
  C        -9.2741507083        2.9617177229        4.4604984557
  H        -9.7855372140        3.8838940690        4.7760086716
  O        -8.0586851412        3.0118593574        4.1191944882
  O       -10.0808618616        1.9790552192        4.3920973198
  C        -9.6032321872       -3.5281933420        4.2551387617
  H       -10.5971720209       -3.6001750875        4.7566807035
  O        -9.3830921255       -2.7227507787        3.2942865676
  O        -8.6782817324       -4.3014835577        4.7628412557
  C        -5.4081392121       -6.0791879171       -6.1561454119
  H        -6.0546960796       -6.5859836395       -6.8890942905
  O        -5.3108435538       -6.5039314142       -4.9649708295
  O        -4.7981484811       -5.0926561759       -6.6851804762
  C        -7.4874640216       -7.2704994115       -1.8348066456
  H        -7.8388434959       -7.7173330376       -2.7530342297
  O        -6.3886220053       -6.5548550188       -1.8841405573
  O        -8.0714884692       -7.4407411537       -0.7456909890
  C        -9.2562107618       -3.4270235773       -2.1219542261
  H        -9.5270787848       -4.0663584857       -2.9594189931
  O        -8.1697066868       -2.7553242975       -2.2726430172
  O        -9.8240425861       -3.4938536034       -1.0090978098
  C        -6.7206828484       -1.5101882638       -7.0045522006
  H        -7.7450574417       -1.9674181007       -7.1698505571
  O        -6.3196371687       -1.2781643463       -5.7988740443
  O        -6.0630444344       -1.2634252414       -8.0153529495
  C        -1.9628590291        5.6954790041       -7.4852714798
  H        -1.7770888886        6.7764005651       -7.4923242406
  O        -2.4610855366        5.1865664705       -6.4086101403
  O        -1.7564794590        5.0401272776       -8.5281552277
  C        -1.7168454811        9.0074561890       -3.7839191488
  H        -1.3493405476        9.2660238074       -4.8465614694
  O        -1.7701709335        7.7192871329       -3.5245350745
  O        -1.9637877599        9.8893768810       -2.9406511056
  C         2.5061986654        8.6538417768       -4.1272915249
  H         2.7131102182        9.0638249498       -5.0476060874
  O         2.0944689635        7.4530610223       -4.0307206202
  O         2.6626815046        9.4110404121       -3.1550499961
  C         1.7411026811        5.3672366784       -8.1968232098
  H         1.4358383610        6.4416008070       -8.3632925476
  O         2.2781621675        5.0764169307       -7.0404389443
  O         1.5313764579        4.4831859466       -9.0174044648
  C         9.4768042665        2.6096184879        3.9000210962
  H         9.6131090334        3.4671477718        4.5843902861
  O         8.5278469896        2.7172842519        3.0490690017
  O        10.1883651250        1.5400225469        4.0329085854
  C         6.6326312073        7.0382455905        3.3282282653
  H         7.5082674956        7.1289998248        4.0070788575
  O         6.4943108505        6.1602673616        2.4465304842
  O         5.7953047527        7.9028957429        3.5810898125
  C         4.7447839975        5.8524566824        6.9353406199
  H         5.7085862008        5.7040540943        7.4370666698
  O         4.3284384962        4.9884922282        6.0814310118
  O         4.1454095337        6.9223174397        7.1369472150
  C         7.5603238891        1.7452838280        7.1878171640
  H         8.1158840311        2.6116602203        7.6593692779
  O         6.7457076715        2.0301467612        6.2243887560
  O         7.8433850909        0.5820511985        7.5893200589
     227
 i =        2, time =        2.000, E =       -24.5549218543
 Cd        -8.6170341439        0.4784278893        3.4767198236
 Cd        -5.8706909677       -0.2575721095        7.1137243464
 Cd        -8.4089819742       -2.1551606862        0.3836740806
 Cd        -6.8897619456       -3.2939742885        3.9621181494