     227
 i =        0, time =        0.000, E =        -1.8674898570
 Cd        -8.6216924880        0.4810107428        3.4775887729
 Cd        -5.8723589632       -0.2566559957        7.1151373767
 Cd        -8.4076147924       -2.1531404527        0.3867588804
 Cd        -6.8957642261       -3.2896665849        3.9600318291
 Cd        -3.6930098048       -3.6992689615        7.3819491709
 Cd        -6.4429261463       -6.2347087238        0.4622469067
 Cd        -4.3123952394       -6.8285875372        3.9039095072
 Cd        -6.1141073353        3.8626235599        2.9066844924
 Cd        -3.6048790416        2.8797284733        6.5917986711
 Cd        -6.7531255596        1.1841266196       -0.3182182747
 Cd        -4.0437606329        0.0729837467        3.0511954168
 Cd        -1.7753257667       -0.3121054857        6.8316599018
 Cd        -6.3661028473       -1.4630135273       -3.4383357626
 Cd        -4.3602814436       -3.1214810613       -0.1759283953
 Cd        -2.2424276819       -3.6242998489        3.6335413818
 Cd         0.1757294635       -3.9625201566        7.0364714760
 Cd        -4.2692200317       -5.9860442556       -3.0005266361
 Cd        -2.2482225396       -6.7972628816        0.6786391664
 Cd         0.0669003827       -7.3030327295        3.8545421700
 Cd        -4.0792754193        7.4105475565        2.4175118797
 Cd        -1.6116442377        6.4880648240        6.2478272306
 Cd        -4.3308002626        4.8127262164       -0.6762739309
 Cd        -1.8326132452        3.6694977750        3.1598212265
 Cd         0.4939817277        3.1637060931        6.7202662426
 Cd        -4.5980154021        1.9988297698       -4.0880170010
 Cd        -2.1651194586        1.0165564496       -0.4536921834
 Cd         0.1376109507       -0.0659106884        3.1336818174
 Cd         2.6419074521       -0.6636939286        6.8958319365
 Cd        -4.1515129292       -0.5348426091       -6.9620217917
 Cd        -2.2012490343       -1.8491984656       -3.4894107829
 Cd         0.0359311218       -2.8494155653       -0.0264680683
 Cd         2.4407298775       -3.8224684908        3.5289587884
 Cd         4.5907434619       -4.2169180472        6.5928471603
 Cd        -2.6321953796       -4.5685798778       -6.0773989300
 Cd        -0.3638438279       -6.1221236347       -3.0620735359
 Cd         1.9882729153       -6.8506852632       -0.0376753302
 Cd         4.3604701588       -7.5063202656        3.0981086138
 Cd        -2.4313710890        8.2839908015       -1.2010761441
 Cd         0.1210964618        6.7915494583        2.0748938605
 Cd         2.2602783261        6.3879934074        5.9824457591
 Cd        -2.2743307721        5.5403016700       -4.1096429978
 Cd         0.1552258413        4.6164378819       -0.9814446932
 Cd         2.6173372932        3.7540356816        2.4616712460
 Cd         4.3934694910        2.5024270436        5.6448470259
 Cd        -2.3839877703        3.0961459608       -7.5397423510
 Cd        -0.1308699873        1.7716472388       -4.3458913396
 Cd         2.1522040622        0.8595996928       -0.9600505658
 Cd         4.3027041934       -0.4425155449        2.5248589789
 Cd         6.4943132815       -0.6514444341        6.0110723312
 Cd         0.4032906214       -0.5920449882       -7.0625722312
 Cd         2.1504065746       -1.8410095193       -3.9631978812
 Cd         4.1282053355       -2.9764966895       -0.5499119195
 Cd         6.9189885741       -3.8001688729        2.8840486736
 Cd         1.0693858855       -4.7693596381       -6.7909688629
 Cd         3.6529341800       -5.7620820022       -3.6150795142
 Cd         5.7341856059       -6.5625995016       -0.3323817960
 Cd         2.4532379782        8.1225833618       -1.1556872380
 Cd         4.4025673150        7.2904811152        1.7928276254
 Cd         2.3800547108        5.2453457502       -4.8107637235
 Cd         4.8184663347        4.7191125514       -1.4277792117
 Cd         6.7589411702        3.8390778732        2.0295448973
 Cd         2.6210634084        2.7844913241       -7.7035228004
 Cd         4.8495943395        1.7843685348       -4.5225056138
 Cd         6.7261500983        1.0662237140       -0.9642295531
 Cd         8.8881450478        0.4141445330        2.4369093904
 Cd         4.3615782352       -0.9213178924       -7.7328888960
 Cd         6.7438649008       -1.9767569930       -4.2031112584
 Cd         8.5272445020       -2.6218905711       -0.2551455218
 Se        -9.0557725106        0.2424574140        0.9180313808
 Se        -6.3745872764       -0.6570220647        4.4225742627
 Se        -3.9358548519       -1.3506397678        8.2925868769
 Se        -6.5830028390       -3.7408669090        1.3890860046
 Se        -4.5802302415       -4.2716541219        4.8585926421
 Se        -4.6110671623       -7.7792240778        1.5343213278
 Se        -6.6407812351        3.9866809498        0.4586064126
 Se        -4.0705866514        2.6241591830        3.9150270775
 Se        -1.6315747320        2.0143859544        7.9219454430
 Se        -6.7106235468        0.9827493806       -3.1628202938
 Se        -4.4077684895       -0.2106461950        0.3970531668
 Se        -2.0534879979       -1.1190641497        4.2604482105
 Se         0.4069246601       -1.5676855049        8.0617057342
 Se        -4.4126107232       -3.1307459794       -2.8028288282
 Se        -2.2371864822       -4.0884616040        0.9473336128
 Se         0.1541797359       -4.8148952714        4.4843326207
 Se        -2.4147106009       -7.4199706225       -2.0529393442
 Se        -0.0662571417       -7.8800811154        1.3078284855
 Se        -4.5519687636        7.5920037884       -0.0122560791
 Se        -1.8482840651        6.3647212661        3.5390459072
 Se         0.4006735392        5.8241498358        7.5878867146
 Se        -4.4655945585        4.5529209660       -3.3484418515
 Se        -2.0798083538        3.7153034916        0.3451575142
 Se         0.4973892782        2.6967113851        3.7286137790
 Se         2.7724753484        1.9958260876        7.6298945277
 Se        -4.6126224962        2.0736182894       -6.9031574659
 Se        -2.2770211290        0.8531533747       -3.1284312065
 Se         0.0138865169       -0.1636477002        0.3858468104
 Se         2.3115473387       -1.3198431962        4.0017354986
 Se         4.8624545925       -1.8855864388        7.7371297607
 Se        -2.0700877949       -1.9675257511       -6.4603372509
 Se        -0.0447057629       -3.1582708631       -2.8090856920
 Se         2.2343306950       -4.2299664240        0.7817840723
 Se         4.8342987615       -4.9516929708        4.0974643468
 Se        -0.7556003326       -6.2829108386       -5.8406699955
 Se         1.9243057511       -7.4784768035       -2.6074198353
 Se         4.2543989663       -8.3809591814        0.7363809319
 Se         0.0386925703        7.3677075300       -0.4939635450
 Se         2.3791568525        6.5289221229        3.1400383851
 Se         0.0465974103        4.4270318221       -3.5936563407
 Se         2.5167269427        3.6273521599       -0.0581806204
 Se         4.7705604635        2.4670139639        3.1233546104
 Se         0.0435933033        1.9323944164       -6.9695738842
 Se         2.2733127965        0.7623703678       -3.6584263160
 Se         4.3816175435       -0.2841549253       -0.0177063702
 Se         6.9670500347       -1.1290204494        3.5565582379
 Se         2.2410869402       -2.2702007814       -6.6798205275
 Se         4.3723294721       -3.1971869108       -3.2130677403
 Se         6.4331938555       -4.1098532443        0.4136420186
 Se         4.8503033307        7.5509093293       -0.7463548497
 Se         4.8776288797        4.5477652435       -4.0091414448
 Se         7.0830986217        3.5950723552       -0.6434567968
 Se         4.7810064642        1.5273410534       -7.5566303287
 Se         6.9188050062        0.6130038217       -3.7081238627
 Se         9.1066871843       -0.0609359671       -0.0919647969
  C         6.9955771113       -6.9586634775       -2.8583426301
  H         7.7780160969       -7.1271873265       -3.6573399650
  O         5.8389952916       -6.4652991204       -3.1445809228
  O         7.2920676004       -7.2683568805       -1.6893132711
  C         3.3939431960       -6.2668607509       -6.9513074648
  H         4.3245440932       -6.8689211647       -7.0591687882
  O         3.0202466073       -5.7860511295       -5.7843136273
  O         2.6220129789       -6.1746538788       -7.9242101403
  C         6.3116555909       -2.9071154185       -7.4921130606
  H         7.0978863851       -3.7212906458       -7.4285512081
  O         6.0096715894       -2.3219711192       -6.3505932827
  O         5.9403243477       -2.4750431756       -8.6116316973
  C         8.9837561036       -3.3697375837       -3.4349055328
  H         9.9249943929       -3.8864043165       -3.1840078659
  O         8.5659407989       -3.4209184445       -4.6048832464
  O         8.2714489672       -2.6971151254       -2.5207012617
  C         9.7902109758       -4.6282247391        2.1768529346
  H        10.6284324694       -5.3337138149        2.3552924638
  O         9.7484501532       -4.1824896055        0.9942458601
  O         9.0219926648       -4.5705851174        3.1873629795
  C        -2.8252708508       -8.8894178348        5.3653894160
  H        -2.3915771747       -9.8892286280        5.4446685031
  O        -1.9808601030       -7.9304545651        5.0436955975
  O        -4.0908415257       -8.7280019527        5.4030844137
  C         3.0047406823       -8.6887063298        5.2919739424
  H         2.6853413808       -9.0312323512        6.2714246943
  O         1.9985977812       -8.3553887881        4.5599054594
  O         4.2197147413       -8.6069092298        4.9235206312
  C         2.8732291572       -5.7090624943        8.2322507888
  H         2.4095730423       -6.3582442170        8.9295273658
  O         2.2236878889       -4.8031284854        7.6183804854
  O         4.1525405945       -5.8988692439        8.1468427445
  C        -2.5324052264       -5.9090323801        8.5168983878
  H        -2.0058427467       -6.7599986745        9.0204193621
  O        -1.9189018681       -5.2527647032        7.5983339134
  O        -3.6521974131       -5.4981014961        8.8936623702
  C        -6.8661340661        2.3082426882        7.3884767521
  H        -7.2433530482        3.2983326111        7.3747512577
  O        -5.6189307919        2.1553364867        7.5292857639
  O        -7.6694328727        1.3672322100        7.2032576312
  C        -4.1128935570        6.2776012356        7.2258109093
  H        -5.2184092536        6.2949225170        7.4003980339
  O        -3.5215502414        5.2331222329        6.7794929280
  O        -3.5956064510        7.4679880815        7.3184340370
  C        -6.2584500423        7.1467273309        4.0778865765
  H        -7.2018864753        7.1620259062        4.6862261037
  O        -5.8042352338        6.0508881806        3.6277903665
  O        -5.6141473350        8.2227071687        3.8530055117
  C        -9.2670155991        2.9624473135        4.4549609073
  H        -9.7760873251        3.8307467380        4.7753730710
  O        -8.0580447847        3.0137717908        4.1153681461
  O       -10.0869615960        1.9755230626        4.3964141791
  C        -9.5997958208       -3.5202239981        4.2555074891
  H       -10.6284324694       -3.6062117458        4.7363993397
  O        -9.3836198173       -2.7271085544        3.2939504316
  O        -8.6749593009       -4.3055307223        4.7674147240
  C        -5.4063829718       -6.0836320759       -6.1576393485
  H        -6.0390997038       -6.5934387315       -6.8768176703
  O        -5.3157147411       -6.5042627408       -4.9638375967
  O        -4.7997118332       -5.0931497246       -6.6842330004
  C        -7.4812021438       -7.2683192216       -1.8337008205
  H        -7.8430239833       -7.7214409635       -2.7403108931
  O        -6.3847231004       -6.5596142310       -1.8855223803
  O        -8.0870004405       -7.4369608581       -0.7449951352
  C        -9.2637717352       -3.4248031045       -2.1287629167
  H        -9.5435102925       -4.0726156799       -2.9624854104
  O        -8.1685743898       -2.7562864935       -2.2769679175
  O        -9.8293124780       -3.4993302663       -1.0042472880
  C        -6.7198117275       -1.5155721631       -7.0057360974
  H        -7.7266400310       -1.9701098143       -7.1795729881
  O        -6.3208037730       -1.2812141421       -5.7891801227
  O        -6.0546670581       -1.2647410752       -8.0219575549
  C        -1.9610306020        5.6962737072       -7.4797868569
  H        -1.8068881661        6.7616764611       -7.4798700689
  O        -2.4613788677        5.1953402046       -6.4147373301
  O        -1.7592038190        5.0404242691       -8.5376948407
  C        -1.7153677193        9.0065729983       -3.7807068554
  H        -1.3518565997        9.2891789052       -4.8285272378
  O        -1.7735635219        7.7204009534       -3.5311974415
  O        -1.9589811591        9.8892286280       -2.9296575010
  C         2.5176986766        8.6527359013       -4.1276241396
  H         2.7356319561        9.0838176512       -5.0545617483
  O         2.0941304229        7.4607563111       -4.0382054964
  O         2.6632020791        9.4136986823       -3.1567247192
  C         1.7405814703        5.3615037054       -8.2026998584
  H         1.4592813282        6.4433815072       -8.3446733349
  O         2.2712544771        5.0744229803       -7.0359036782
  O         1.5374971892        4.4786315137       -9.0204193621
  C         9.4791869119        2.6134878200        3.9079418032
  H         9.6264681644        3.4611325178        4.5867541287
  O         8.5294682966        2.7206869475        3.0468687327
  O        10.1884170796        1.5361363159        4.0354546634
  C         6.6320899766        7.0427804887        3.3240585285
  H         7.5183451153        7.1103565644        4.0025867163
  O         6.4921259472        6.1579139584        2.4473334656
  O         5.8014508194        7.8970951585        3.5804466065
  C         4.7468288793        5.8510846562        6.9391041765
  H         5.6837062732        5.7110173508        7.4566454645
  O         4.3315486404        4.9881730889        6.0840680113
  O         4.1390624477        6.9214380767        7.1338855679
  C         7.5642974957        1.7429307679        7.1823006621
  H         8.1116275708        2.6102062210        7.6466333920
  O         6.7423080014        2.0330978891        6.2208765696
  O         7.8434776238        0.5800715711        7.5931108165
     227
 i =        1, time =        1.000, E =        -1.8892250972
 Cd        -8.6193188770        0.4795912190        3.4772452906
 Cd        -5.8717041015       -0.2571584571        7.1143240927
 Cd        -8.4082226799       -2.1542328141        0.3851669245
 Cd        -6.8926646114       -3.2917189961        3.9611109291
 Cd        -3.6901917824       -3.7004817336        7.3822860829
 Cd        -6.4420194366       -6.2357200960        0.4643014307
 Cd        -4.3123292328       -6.8295619454        3.9053468890
 Cd        -6.1164339805        3.8609147525        2.9057228407
 Cd        -3.6067197439        2.8812674736        6.5902973487
 Cd        -6.7534110123        1.1872533319       -0.3192275382
 Cd        -4.0444679224        0.0755155024        3.0501410844
 Cd        -1.7741931390       -0.3126851212        6.8335084332
 Cd        -6.3661203768       -1.4626744391       -3.4401663707
 Cd        -4.3614514965       -3.1217224448       -0.1745248949
 Cd        -2.2425901909       -3.6216959851        3.6335864849
 Cd         0.1785846672       -3.9616393616        7.0369286629
 Cd        -4.2694491133       -5.9880614900       -2.9988649827
 Cd        -2.2488617017       -6.7965301109        0.6791173023
 Cd         0.0677271543       -7.3030936887        3.8542790565
 Cd        -4.0801489530        7.4119076019        2.4184345866
 Cd        -1.6108886115        6.4880546181        6.2508413986
 Cd        -4.3325053933        4.8128488137       -0.6769255671
 Cd        -1.8303856912        3.6696509739        3.1588825467
 Cd         0.4898092526        3.1633800326        6.7204303778
 Cd        -4.5994483372        2.0001190277       -4.0891206771
 Cd        -2.1629310750        1.0182034795       -0.4517363822
 Cd         0.1384102760       -0.0680988256        3.1343818415
 Cd         2.6424408673       -0.6635313871        6.8957924337
 Cd        -4.1540763295       -0.5351235414       -6.9611213548
 Cd        -2.2031951821       -1.8490334621       -3.4900966560
 Cd         0.0357932941       -2.8474816092       -0.0251042674
 Cd         2.4397481000       -3.8216917691        3.5304203825
 Cd         4.5938441312       -4.2152171852        6.5946796850
 Cd        -2.6317738249       -4.5698948954       -6.0785104357
 Cd        -0.3609300354       -6.1209280679       -3.0631473503
 Cd         1.9864668145       -6.8522956961       -0.0374232138
 Cd         4.3579010748       -7.5048088557        3.0973188326
 Cd        -2.4319332624        8.2868005186       -1.2004083831
 Cd         0.1211435506        6.7911954538        2.0746082121
 Cd         2.2581273378        6.3879869543        5.9824115792
 Cd        -2.2739497314        5.5406240150       -4.1121642865
 Cd         0.1544529066        4.6148697554       -0.9822509915
 Cd         2.6164662899        3.7534715372        2.4611982324
 Cd         4.3939401575        2.5015344269        5.6447847305
 Cd        -2.3863503079        3.0936378520       -7.5399526285
 Cd        -0.1312512102        1.7709248072       -4.3473822084
 Cd         2.1531220616        0.8600854813       -0.9631920019
 Cd         4.3035456201       -0.4402382858        2.5249580638
 Cd         6.4920105460       -0.6517254319        6.0106055117
 Cd         0.4041128781       -0.5928062372       -7.0621963297
 Cd         2.1512545650       -1.8411627333       -3.9633178219
 Cd         4.1299865685       -2.9779770792       -0.5482371239
 Cd         6.9198068216       -3.7969103156        2.8856943065
 Cd         1.0695719997       -4.7690397354       -6.7907591430
 Cd         3.6506443692       -5.7624849381       -3.6176410001
 Cd         5.7328406078       -6.5639035172       -0.3327170202
 Cd         2.4549535267        8.1223840194       -1.1566315871
 Cd         4.4054005316        7.2898483110        1.7947934664
 Cd         2.3804001547        5.2451815435       -4.8086138473
 Cd         4.8188715614        4.7185095603       -1.4282678243
 Cd         6.7582448543        3.8402053326        2.0311242374
 Cd         2.6216204905        2.7829578899       -7.7033914940
 Cd         4.8491154880        1.7847623241       -4.5232360796
 Cd         6.7276442270        1.0648599987       -0.9630991882
 Cd         8.8867545018        0.4155562074        2.4348680925
 Cd         4.3617369509       -0.9228337084       -7.7309755637
 Cd         6.7427208495       -1.9756354487       -4.2012260397
 Cd         8.5291698127       -2.6208032010       -0.2527350999
 Se        -9.0550835758        0.2431957006        0.9181604963
 Se        -6.3728200650       -0.6564378523        4.4183752173
 Se        -3.9343977946       -1.3488547864        8.2970107593
 Se        -6.5830987857       -3.7426217945        1.3879596018
 Se        -4.5790908944       -4.2750289402        4.8599040352
 Se        -4.6123035931       -7.7769894390        1.5327386300
 Se        -6.6425881117        3.9855829469        0.4573488353
 Se        -4.0720422876        2.6208131383        3.9144607661
 Se        -1.6331533145        2.0119261796        7.9255918970
 Se        -6.7122151817        0.9832260051       -3.1653151467
 Se        -4.4071847982       -0.2112544261        0.3948368648
 Se        -2.0530377773       -1.1152449590        4.2595057258
 Se         0.4059664726       -1.5661109264        8.0653764303
 Se        -4.4161575309       -3.1302101871       -2.8048382492
 Se        -2.2373021611       -4.0916234327        0.9472373218
 Se         0.1529683695       -4.8126898419        4.4858918274
 Se        -2.4165233824       -7.4210382090       -2.0538821299
 Se        -0.0667392793       -7.8795684899        1.3095693604
 Se        -4.5525985822        7.5949349745       -0.0129151419
 Se        -1.8470799053        6.3634005265        3.5403701073
 Se         0.4037615379        5.8261022210        7.5864633498
 Se        -4.4664383592        4.5540784876       -3.3489675679
 Se        -2.0809719053        3.7152112286        0.3431789179
 Se         0.4983464924        2.6968733536        3.7288749174
 Se         2.7718225464        1.9959043274        7.6265429324
 Se        -4.6135980675        2.0748419450       -6.9049774421
 Se        -2.2789824756        0.8535043840       -3.1261457670
 Se         0.0146606920       -0.1632532708        0.3854517103
 Se         2.3129925352       -1.3187000950        3.9992642553
 Se         4.8632785917       -1.8842656568        7.7357593723
 Se        -2.0700235791       -1.9664688618       -6.4604552448
 Se        -0.0445661035       -3.1600976345       -2.8087824644
 Se         2.2322674217       -4.2315504471        0.7809795507
 Se         4.8362941404       -4.9532860833        4.0967432380
 Se        -0.7551748817       -6.2853196180       -5.8414104552
 Se         1.9250264891       -7.4793761133       -2.6077845716
 Se         4.2593029664       -8.3796662939        0.7362009089
 Se         0.0355499504        7.3687494388       -0.4914262811
 Se         2.3810782083        6.5252077269        3.1428394539
 Se         0.0438367761        4.4288459004       -3.5941397012
 Se         2.5164370893        3.6274177783       -0.0572342872
 Se         4.7728957920        2.4660140961        3.1252348942
 Se         0.0454806849        1.9302404400       -6.9707838608
 Se         2.2759813314        0.7649875696       -3.6571088214
 Se         4.3767989599       -0.2853516227       -0.0180645933
 Se         6.9677833260       -1.1294932980        3.5580638901
 Se         2.2372525449       -2.2684690852       -6.6838818997
 Se         4.3738907088       -3.1974891337       -3.2157502539
 Se         6.4331110929       -4.1117591867        0.4126826450
 Se         4.8520883059        7.5524519607       -0.7461098930
 Se         4.8776218827        4.5490711539       -4.0125575502
 Se         7.0859153158        3.5937322200       -0.6428986474
 Se         4.7822028425        1.5266937894       -7.5555662259
 Se         6.9189840725        0.6112035598       -3.7073681275
 Se         9.1071517588       -0.0625890397       -0.0925558203
  C         6.9966790781       -6.9498439937       -2.8612693682
  H         7.7649322095       -7.1224747738       -3.6684216540
  O         5.8448094486       -6.4676109359       -3.1400062851
  O         7.2900050430       -7.2748254712       -1.6949105893
  C         3.3950640311       -6.2673083711       -6.9491831487
  H         4.3444066225       -6.8936096686       -7.0753272229
  O         3.0189800759       -5.7912019785       -5.7830814381
  O         2.6181518757       -6.1693015488       -7.9243070846
  C         6.3106280220       -2.9078493256       -7.4910600265
  H         7.1299137504       -3.7048862282       -7.4466889051
  O         6.0084923602       -2.3184650159       -6.3483941939
  O         5.9397887644       -2.4746530941       -8.6127062215
  C         8.9774514772       -3.3708799209       -3.4296503610
  H         9.9250180562       -3.8774829974       -3.1826003730
  O         8.5688235800       -3.4153059137       -4.6047428178
  O         8.2720825002       -2.6970252507       -2.5208364784
  C         9.7980776033       -4.6252020629        2.1809992642
  H        10.6408655401       -5.3318691344        2.3887999993
  O         9.7479229785       -4.1810405053        0.9930790314
  O         9.0298409955       -4.5685915165        3.1872573812
  C        -2.8217323097       -8.8884413413        5.3598597111
  H        -2.4154187803       -9.9024293192        5.4343946394
  O        -1.9850807858       -7.9308403654        5.0425848312
  O        -4.0904171811       -8.7278205846        5.4047369609
  C         2.9969226882       -8.6916259144        5.2874261075
  H         2.6967725338       -9.0398269484        6.2934215078
  O         2.0001268002       -8.3583505270        4.5597754199
  O         4.2231796680       -8.6020547124        4.9178372701
  C         2.8793060440       -5.7053267552        8.2324304825
  H         2.3955873073       -6.3773024893        8.9303283437
  O         2.2198648588       -4.8093684208        7.6167455716
  O         4.1496761334       -5.9041006658        8.1541710528
  C        -2.5347140373       -5.9173474726        8.5220107447
  H        -2.0052498086       -6.7390725628        9.0096019785
  O        -1.9211535440       -5.2589569919        7.5985530432
  O        -3.6522258422       -5.5089972985        8.8932559761
  C        -6.8630686881        2.3027054326        7.3892114314
  H        -7.2086193538        3.3071349018        7.3885257928
  O        -5.6220181127        2.1592898136        7.5341288873
  O        -7.6699584037        1.3706590067        7.2000584546
  C        -4.1169953631        6.2828064145        7.2281949363
  H        -5.2418933127        6.2896177269        7.3832000201
  O        -3.5273478295        5.2293727990        6.7741369727
  O        -3.5914221859        7.4674984764        7.3182423404
  C        -6.2567447557        7.1462465942        4.0780913765
  H        -7.2111390447        7.1649409639        4.6689854642
  O        -5.8092046857        6.0485775468        3.6283443808
  O        -5.6136914355        8.2212151203        3.8495920514
  C        -9.2742248967        2.9617595002        4.4604758154
  H        -9.7855372140        3.8838940690        4.7760086716
  O        -8.0592017666        3.0118934925        4.1195543761
  O       -10.0818106765        1.9799951470        4.3926579587
  C        -9.6032829564       -3.5282220490        4.2551689359
  H       -10.5971720209       -3.6001750875        4.7566807035
  O        -9.3836633024       -2.7227957297        3.2943773048
  O        -8.6801063089       -4.3025294471        4.7636705792
  C        -5.4081381935       -6.0792372584       -6.1561981017
  H        -6.0546960796       -6.5859836395       -6.8890942905
  O        -5.3115611185       -6.5043625474       -4.9661645488
  O        -4.7993085303       -5.0929735788       -6.6855660109
  C        -7.4874959271       -7.2705786685       -1.8347932277
  H        -7.8388434959       -7.7173330376       -2.7530342297
  O        -6.3891220896       -6.5551911922       -1.8847987644
  O        -8.0721779500       -7.4412594803       -0.7461880583
  C        -9.2562833106       -3.4269961830       -2.1219774973
  H        -9.5270787848       -4.0663584857       -2.9594189931
  O        -8.1701283535       -2.7555949229       -2.2726573832
  O        -9.8245791976       -3.4942847739       -1.0095523468
  C        -6.7207120693       -1.5101410593       -7.0046044030
  H        -7.7450574417       -1.9674181007       -7.1698505571
  O        -6.3200129402       -1.2783041501       -5.7998402196
  O        -6.0641910415       -1.2638522690       -8.0160132530
  C        -1.9629127971        5.6954913342       -7.4853221122
  H        -1.7770888886        6.7764005651       -7.4923242406
  O        -2.4612273938        5.1872443221       -6.4093281161
  O        -1.7560992522        5.0414734219       -8.5288986846
  C        -1.7168984315        9.0075150967       -3.7839134131
  H        -1.3493405476        9.2660238074       -4.8465614694
  O        -1.7698865565        7.7203968144       -3.5248840076
  O        -1.9636602665        9.8899686041       -2.9412547177
  C         2.5062448777        8.6538928795       -4.1272905023
  H         2.7131102182        9.0638249498       -5.0476060874
  O         2.0944254261        7.4540019517       -4.0305589816
  O         2.6627640137        9.4115372348       -3.1558047346
  C         1.7411651444        5.3672435666       -8.1968721839
  H         1.4358383610        6.4416008070       -8.3632925476
  O         2.2780331651        5.0770550511       -7.0420918639
  O         1.5310620761        4.4838661447       -9.0179792293
  C         9.4768940147        2.6096289169        3.8999964943
  H         9.6131090334        3.4671477718        4.5843902861
  O         8.5286684298        2.7174723193        3.0497159155
  O        10.1889831591        1.5405280616        4.0336246364
  C         6.6326644718        7.0383136344        3.3281993562
  H         7.5082674956        7.1289998248        4.0070788575
  O         6.4947889830        6.1609017373        2.4468432262
  O         5.7960344618        7.9032445610        3.5818807639
  C         4.7447647765        5.8524868762        6.9354071095
  H         5.7085862008        5.7040540943        7.4370666698
  O         4.3289242236        4.9887353931        6.0816244116
  O         4.1467286783        6.9227094696        7.1377948578
  C         7.5603398214        1.7452805301        7.1878930445
  H         8.1158840311        2.6116602203        7.6593692779
  O         6.7463234716        2.0302772000        6.2246563568
  O         7.8438389575        0.5824498036        7.5898684821
     227
 i =        2, time =        2.000, E =        -1.9402653368
 Cd        -8.6169069122        0.4781146069        3.4770697401
 Cd        -5.8714346880       -0.2575082568        7.1133603729
 Cd        -8.4088924567       -2.1555615978        0.3834079967
 Cd        -6.8894409150       -3.2935783137        3.9622089308