     227
 i =        0, time =        0.000, E =       -19.7825746331
 Cd        -8.6216924880        0.4810107428        3.4775887729
 Cd        -5.8723589632       -0.2566559957        7.1151373767
 Cd        -8.4076147924       -2.1531404527        0.3867588804
 Cd        -6.8957642261       -3.2896665849        3.9600318291
 Cd        -3.6930098048       -3.6992689615        7.3819491709
 Cd        -6.4429261463       -6.2347087238        0.4622469067
 Cd        -4.3123952394       -6.8285875372        3.9039095072
 Cd        -6.1141073353        3.8626235599        2.9066844924
 Cd        -3.6048790416        2.8797284733        6.5917986711
 Cd        -6.7531255596        1.1841266196       -0.3182182747
 Cd        -4.0437606329        0.0729837467        3.0511954168
 Cd        -1.7753257667       -0.3121054857        6.8316599018
 Cd        -6.3661028473       -1.4630135273       -3.4383357626
 Cd        -4.3602814436       -3.1214810613       -0.1759283953
 Cd        -2.2424276819       -3.6242998489        3.6335413818
 Cd         0.1757294635       -3.9625201566        7.0364714760
 Cd        -4.2692200317       -5.9860442556       -3.0005266361
 Cd        -2.2482225396       -6.7972628816        0.6786391664
 Cd         0.0669003827       -7.3030327295        3.8545421700
 Cd        -4.0792754193        7.4105475565        2.4175118797
 Cd        -1.6116442377        6.4880648240        6.2478272306
 Cd        -4.3308002626        4.8127262164       -0.6762739309
 Cd        -1.8326132452        3.6694977750        3.1598212265
 Cd         0.4939817277        3.1637060931        6.7202662426
 Cd        -4.5980154021        1.9988297698       -4.0880170010
 Cd        -2.1651194586        1.0165564496       -0.4536921834
 Cd         0.1376109507       -0.0659106884        3.1336818174
 Cd         2.6419074521       -0.6636939286        6.8958319365
 Cd        -4.1515129292       -0.5348426091       -6.9620217917
 Cd        -2.2012490343       -1.8491984656       -3.4894107829
 Cd         0.0359311218       -2.8494155653       -0.0264680683
 Cd         2.4407298775       -3.8224684908        3.5289587884
 Cd         4.5907434619       -4.2169180472        6.5928471603
 Cd        -2.6321953796       -4.5685798778       -6.0773989300
 Cd        -0.3638438279       -6.1221236347       -3.0620735359
 Cd         1.9882729153       -6.8506852632       -0.0376753302
 Cd         4.3604701588       -7.5063202656        3.0981086138
 Cd        -2.4313710890        8.2839908015       -1.2010761441
 Cd         0.1210964618        6.7915494583        2.0748938605
 Cd         2.2602783261        6.3879934074        5.9824457591
 Cd        -2.2743307721        5.5403016700       -4.1096429978
 Cd         0.1552258413        4.6164378819       -0.9814446932
 Cd         2.6173372932        3.7540356816        2.4616712460
 Cd         4.3934694910        2.5024270436        5.6448470259
 Cd        -2.3839877703        3.0961459608       -7.5397423510
 Cd        -0.1308699873        1.7716472388       -4.3458913396
 Cd         2.1522040622        0.8595996928       -0.9600505658
 Cd         4.3027041934       -0.4425155449        2.5248589789
 Cd         6.4943132815       -0.6514444341        6.0110723312
 Cd         0.4032906214       -0.5920449882       -7.0625722312
 Cd         2.1504065746       -1.8410095193       -3.9631978812
 Cd         4.1282053355       -2.9764966895       -0.5499119195
 Cd         6.9189885741       -3.8001688729        2.8840486736
 Cd         1.0693858855       -4.7693596381       -6.7909688629
 Cd         3.6529341800       -5.7620820022       -3.6150795142
 Cd         5.7341856059       -6.5625995016       -0.3323817960
 Cd         2.4532379782        8.1225833618       -1.1556872380
 Cd         4.4025673150        7.2904811152        1.7928276254
 Cd         2.3800547108        5.2453457502       -4.8107637235
 Cd         4.8184663347        4.7191125514       -1.4277792117
 Cd         6.7589411702        3.8390778732        2.0295448973
 Cd         2.6210634084        2.7844913241       -7.7035228004
 Cd         4.8495943395        1.7843685348       -4.5225056138
 Cd         6.7261500983        1.0662237140       -0.9642295531
 Cd         8.8881450478        0.4141445330        2.4369093904
 Cd         4.3615782352       -0.9213178924       -7.7328888960
 Cd         6.7438649008       -1.9767569930       -4.2031112584
 Cd         8.5272445020       -2.6218905711       -0.2551455218
 Se        -9.0557725106        0.2424574140        0.9180313808
 Se        -6.3745872764       -0.6570220647        4.4225742627
 Se        -3.9358548519       -1.3506397678        8.2925868769
 Se        -6.5830028390       -3.7408669090        1.3890860046
 Se        -4.5802302415       -4.2716541219        4.8585926421
 Se        -4.6110671623       -7.7792240778        1.5343213278
 Se        -6.6407812351        3.9866809498        0.4586064126
 Se        -4.0705866514        2.6241591830        3.9150270775
 Se        -1.6315747320        2.0143859544        7.9219454430
 Se        -6.7106235468        0.9827493806       -3.1628202938
 Se        -4.4077684895       -0.2106461950        0.3970531668
 Se        -2.0534879979       -1.1190641497        4.2604482105
 Se         0.4069246601       -1.5676855049        8.0617057342
 Se        -4.4126107232       -3.1307459794       -2.8028288282
 Se        -2.2371864822       -4.0884616040        0.9473336128
 Se         0.1541797359       -4.8148952714        4.4843326207
 Se        -2.4147106009       -7.4199706225       -2.0529393442
 Se        -0.0662571417       -7.8800811154        1.3078284855
 Se        -4.5519687636        7.5920037884       -0.0122560791
 Se        -1.8482840651        6.3647212661        3.5390459072
 Se         0.4006735392        5.8241498358        7.5878867146
 Se        -4.4655945585        4.5529209660       -3.3484418515
 Se        -2.0798083538        3.7153034916        0.3451575142
 Se         0.4973892782        2.6967113851        3.7286137790
 Se         2.7724753484        1.9958260876        7.6298945277
 Se        -4.6126224962        2.0736182894       -6.9031574659
 Se        -2.2770211290        0.8531533747       -3.1284312065
 Se         0.0138865169       -0.1636477002        0.3858468104
 Se         2.3115473387       -1.3198431962        4.0017354986
 Se         4.8624545925       -1.8855864388        7.7371297607
 Se        -2.0700877949       -1.9675257511       -6.4603372509
 Se        -0.0447057629       -3.1582708631       -2.8090856920
 Se         2.2343306950       -4.2299664240        0.7817840723
 Se         4.8342987615       -4.9516929708        4.0974643468
 Se        -0.7556003326       -6.2829108386       -5.8406699955
 Se         1.9243057511       -7.4784768035       -2.6074198353
 Se         4.2543989663       -8.3809591814        0.7363809319
 Se         0.0386925703        7.3677075300       -0.4939635450
 Se         2.3791568525        6.5289221229        3.1400383851
 Se         0.0465974103        4.4270318221       -3.5936563407
 Se         2.5167269427        3.6273521599       -0.0581806204
 Se         4.7705604635        2.4670139639        3.1233546104
 Se         0.0435933033        1.9323944164       -6.9695738842
 Se         2.2733127965        0.7623703678       -3.6584263160
 Se         4.3816175435       -0.2841549253       -0.0177063702
 Se         6.9670500347       -1.1290204494        3.5565582379
 Se         2.2410869402       -2.2702007814       -6.6798205275
 Se         4.3723294721       -3.1971869108       -3.2130677403
 Se         6.4331938555       -4.1098532443        0.4136420186
 Se         4.8503033307        7.5509093293       -0.7463548497
 Se         4.8776288797        4.5477652435       -4.0091414448
 Se         7.0830986217        3.5950723552       -0.6434567968
 Se         4.7810064642        1.5273410534       -7.5566303287
 Se         6.9188050062        0.6130038217       -3.7081238627
 Se         9.1066871843       -0.0609359671       -0.0919647969
  C         6.9955771113       -6.9586634775       -2.8583426301
  H         7.7780160969       -7.1271873265       -3.6573399650
  O         5.8389952916       -6.4652991204       -3.1445809228
  O         7.2920676004       -7.2683568805       -1.6893132711
  C         3.3939431960       -6.2668607509       -6.9513074648
  H         4.3245440932       -6.8689211647       -7.0591687882
  O         3.0202466073       -5.7860511295       -5.7843136273
  O         2.6220129789       -6.1746538788       -7.9242101403
  C         6.3116555909       -2.9071154185       -7.4921130606
  H         7.0978863851       -3.7212906458       -7.4285512081
  O         6.0096715894       -2.3219711192       -6.3505932827
  O         5.9403243477       -2.4750431756       -8.6116316973
  C         8.9837561036       -3.3697375837       -3.4349055328
  H         9.9249943929       -3.8864043165       -3.1840078659
  O         8.5659407989       -3.4209184445       -4.6048832464
  O         8.2714489672       -2.6971151254       -2.5207012617
  C         9.7902109758       -4.6282247391        2.1768529346
  H        10.6284324694       -5.3337138149        2.3552924638
  O         9.7484501532       -4.1824896055        0.9942458601
  O         9.0219926648       -4.5705851174        3.1873629795
  C        -2.8252708508       -8.8894178348        5.3653894160
  H        -2.3915771747       -9.8892286280        5.4446685031
  O        -1.9808601030       -7.9304545651        5.0436955975
  O        -4.0908415257       -8.7280019527        5.4030844137
  C         3.0047406823       -8.6887063298        5.2919739424
  H         2.6853413808       -9.0312323512        6.2714246943
  O         1.9985977812       -8.3553887881        4.5599054594
  O         4.2197147413       -8.6069092298        4.9235206312
  C         2.8732291572       -5.7090624943        8.2322507888
  H         2.4095730423       -6.3582442170        8.9295273658
  O         2.2236878889       -4.8031284854        7.6183804854
  O         4.1525405945       -5.8988692439        8.1468427445
  C        -2.5324052264       -5.9090323801        8.5168983878
  H        -2.0058427467       -6.7599986745        9.0204193621
  O        -1.9189018681       -5.2527647032        7.5983339134
  O        -3.6521974131       -5.4981014961        8.8936623702
  C        -6.8661340661        2.3082426882        7.3884767521
  H        -7.2433530482        3.2983326111        7.3747512577
  O        -5.6189307919        2.1553364867        7.5292857639
  O        -7.6694328727        1.3672322100        7.2032576312
  C        -4.1128935570        6.2776012356        7.2258109093
  H        -5.2184092536        6.2949225170        7.4003980339
  O        -3.5215502414        5.2331222329        6.7794929280
  O        -3.5956064510        7.4679880815        7.3184340370
  C        -6.2584500423        7.1467273309        4.0778865765
  H        -7.2018864753        7.1620259062        4.6862261037
  O        -5.8042352338        6.0508881806        3.6277903665
  O        -5.6141473350        8.2227071687        3.8530055117
  C        -9.2670155991        2.9624473135        4.4549609073
  H        -9.7760873251        3.8307467380        4.7753730710
  O        -8.0580447847        3.0137717908        4.1153681461
  O       -10.0869615960        1.9755230626        4.3964141791
  C        -9.5997958208       -3.5202239981        4.2555074891
  H       -10.6284324694       -3.6062117458        4.7363993397
  O        -9.3836198173       -2.7271085544        3.2939504316
  O        -8.6749593009       -4.3055307223        4.7674147240
  C        -5.4063829718       -6.0836320759       -6.1576393485
  H        -6.0390997038       -6.5934387315       -6.8768176703
  O        -5.3157147411       -6.5042627408       -4.9638375967
  O        -4.7997118332       -5.0931497246       -6.6842330004
  C        -7.4812021438       -7.2683192216       -1.8337008205
  H        -7.8430239833       -7.7214409635       -2.7403108931
  O        -6.3847231004       -6.5596142310       -1.8855223803
  O        -8.0870004405       -7.4369608581       -0.7449951352
  C        -9.2637717352       -3.4248031045       -2.1287629167
  H        -9.5435102925       -4.0726156799       -2.9624854104
  O        -8.1685743898       -2.7562864935       -2.2769679175
  O        -9.8293124780       -3.4993302663       -1.0042472880
  C        -6.7198117275       -1.5155721631       -7.0057360974
  H        -7.7266400310       -1.9701098143       -7.1795729881
  O        -6.3208037730       -1.2812141421       -5.7891801227
  O        -6.0546670581       -1.2647410752       -8.0219575549
  C        -1.9610306020        5.6962737072       -7.4797868569
  H        -1.8068881661        6.7616764611       -7.4798700689
  O        -2.4613788677        5.1953402046       -6.4147373301
  O        -1.7592038190        5.0404242691       -8.5376948407
  C        -1.7153677193        9.0065729983       -3.7807068554
  H        -1.3518565997        9.2891789052       -4.8285272378
  O        -1.7735635219        7.7204009534       -3.5311974415
  O        -1.9589811591        9.8892286280       -2.9296575010
  C         2.5176986766        8.6527359013       -4.1276241396
  H         2.7356319561        9.0838176512       -5.0545617483
  O         2.0941304229        7.4607563111       -4.0382054964
  O         2.6632020791        9.4136986823       -3.1567247192
  C         1.7405814703        5.3615037054       -8.2026998584
  H         1.4592813282        6.4433815072       -8.3446733349
  O         2.2712544771        5.0744229803       -7.0359036782
  O         1.5374971892        4.4786315137       -9.0204193621
  C         9.4791869119        2.6134878200        3.9079418032
  H         9.6264681644        3.4611325178        4.5867541287
  O         8.5294682966        2.7206869475        3.0468687327
  O        10.1884170796        1.5361363159        4.0354546634
  C         6.6320899766        7.0427804887        3.3240585285
  H         7.5183451153        7.1103565644        4.0025867163
  O         6.4921259472        6.1579139584        2.4473334656
  O         5.8014508194        7.8970951585        3.5804466065
  C         4.7468288793        5.8510846562        6.9391041765
  H         5.6837062732        5.7110173508        7.4566454645
  O         4.3315486404        4.9881730889        6.0840680113
  O         4.1390624477        6.9214380767        7.1338855679
  C         7.5642974957        1.7429307679        7.1823006621
  H         8.1116275708        2.6102062210        7.6466333920
  O         6.7423080014        2.0330978891        6.2208765696
  O         7.8434776238        0.5800715711        7.5931108165
     227
 i =        1, time =        1.000, E =       -19.7922837054
 Cd        -8.6193481500        0.4796597174        3.4771634249
 Cd        -5.8715260857       -0.2571802703        7.1144069594
 Cd        -8.4082350470       -2.1541343961        0.3852332746
 Cd        -6.8927418953       -3.2918134008        3.9610926516
 Cd        -3.6901774236       -3.7003948034        7.3824041200
 Cd        -6.4419814228       -6.2357725364        0.4642597169
 Cd        -4.3123522768       -6.8296425714        3.9052160873
 Cd        -6.1163909978        3.8609370825        2.9055583066
 Cd        -3.6066261103        2.8812331445        6.5904303218
 Cd        -6.7534411288        1.1872425793       -0.3192278046
 Cd        -4.0444310976        0.0755198256        3.0501940736
 Cd        -1.7741825799       -0.3125680902        6.8336109764
 Cd        -6.3661077285       -1.4624164193       -3.4401818269
 Cd        -4.3613492156       -3.1217885056       -0.1745526249
 Cd        -2.2426170583       -3.6215613595        3.6336179682
 Cd         0.1787198459       -3.9615919892        7.0369492419
 Cd        -4.2693824511       -5.9882561993       -2.9988697511
 Cd        -2.2486944874       -6.7966476709        0.6791612050
 Cd         0.0677939505       -7.3029975632        3.8542315183
 Cd        -4.0803255512        7.4119333790        2.4182622250
 Cd        -1.6107936391        6.4879191457        6.2509890220
 Cd        -4.3325533159        4.8128101809       -0.6769626541
 Cd        -1.8304063229        3.6695970201        3.1589466618
 Cd         0.4898063266        3.1633314392        6.7205638477
 Cd        -4.5996619528        2.0001227003       -4.0890067854
 Cd        -2.1629035811        1.0181242598       -0.4517626760
 Cd         0.1384352812       -0.0681759525        3.1344267969
 Cd         2.6424402119       -0.6635623283        6.8959372829
 Cd        -4.1541062594       -0.5351549116       -6.9611341720
 Cd        -2.2031858051       -1.8491069806       -3.4900264485
 Cd         0.0358077495       -2.8475033222       -0.0251003547
 Cd         2.4397091207       -3.8215513341        3.5304713767
 Cd         4.5938299538       -4.2152058368        6.5946980198
 Cd        -2.6316991531       -4.5699942375       -6.0785571964
 Cd        -0.3609686016       -6.1210964744       -3.0631400343
 Cd         1.9863992091       -6.8523708908       -0.0374671233
 Cd         4.3578600655       -7.5050755930        3.0974163295
 Cd        -2.4320606977        8.2867282929       -1.2003760667
 Cd         0.1211454409        6.7911471776        2.0748036810
 Cd         2.2581221296        6.3879326184        5.9826799548
 Cd        -2.2740467250        5.5405491329       -4.1121354192
 Cd         0.1544570444        4.6148745332       -0.9823592738
 Cd         2.6165322392        3.7533447719        2.4610176027
 Cd         4.3939379619        2.5015437642        5.6447018066
 Cd        -2.3864896532        3.0937470632       -7.5398882075
 Cd        -0.1312643184        1.7709390373       -4.3474278593
 Cd         2.1531928701        0.8600238259       -0.9632110813
 Cd         4.3034786803       -0.4402514738        2.5247993830
 Cd         6.4920437087       -0.6517710734        6.0104968274
 Cd         0.4042676228       -0.5927812010       -7.0621305582
 Cd         2.1513323431       -1.8411020792       -3.9633428404
 Cd         4.1299949419       -2.9780284591       -0.5482384692
 Cd         6.9198307995       -3.7969833684        2.8855181401
 Cd         1.0695821734       -4.7692336364       -6.7906642014
 Cd         3.6506445264       -5.7625314538       -3.6177349019
 Cd         5.7329891747       -6.5640424890       -0.3327968055
 Cd         2.4551335369        8.1223008731       -1.1566460377
 Cd         4.4053728396        7.2897898500        1.7948423046
 Cd         2.3804098784        5.2452325093       -4.8087345337
 Cd         4.8190067110        4.7184604212       -1.4284290352
 Cd         6.7582474093        3.8401520802        2.0311477596
 Cd         2.6218064105        2.7829272225       -7.7033820186
 Cd         4.8493767998        1.7846706262       -4.5231252880
 Cd         6.7277456841        1.0650298922       -0.9631246250
 Cd         8.8867468889        0.4155926080        2.4347931295
 Cd         4.3618335626       -0.9226174678       -7.7309121884
 Cd         6.7427943390       -1.9756266974       -4.2012748183
 Cd         8.5291340896       -2.6208097528       -0.2528104570
 Se        -9.0547125856        0.2428372851        0.9183349274
 Se        -6.3727429627       -0.6565092960        4.4182965042
 Se        -3.9345502682       -1.3489697958        8.2964522126
 Se        -6.5831042330       -3.7425300721        1.3880744108
 Se        -4.5790511438       -4.2748371103        4.8597138783
 Se        -4.6122224735       -7.7765020841        1.5328613561
 Se        -6.6422009929        3.9855369948        0.4577316172
 Se        -4.0719212885        2.6208438360        3.9142693449
 Se        -1.6333352181        2.0117278047        7.9250206755
 Se        -6.7116017833        0.9828574329       -3.1654496858
 Se        -4.4070426392       -0.2111807295        0.3949119511
 Se        -2.0531287879       -1.1153489926        4.2593600656
 Se         0.4060011888       -1.5661780058        8.0650040485
 Se        -4.4160368249       -3.1299588816       -2.8046428652
 Se        -2.2374493453       -4.0915720624        0.9472032312
 Se         0.1530651446       -4.8127434241        4.4857801309
 Se        -2.4165712769       -7.4205249170       -2.0539610497
 Se        -0.0669712752       -7.8790545510        1.3095561816
 Se        -4.5520385532        7.5948220007       -0.0125668903
 Se        -1.8467065948        6.3632900397        3.5400354955
 Se         0.4036941097        5.8261684489        7.5857741313
 Se        -4.4659626918        4.5539407123       -3.3489371144
 Se        -2.0809635418        3.7152457455        0.3431647218
 Se         0.4982010322        2.6970165652        3.7286545362
 Se         2.7717813983        1.9958511950        7.6261187092
 Se        -4.6130969804        2.0747325418       -6.9048945983
 Se        -2.2788609709        0.8535003454       -3.1260980272
 Se         0.0145490520       -0.1632255062        0.3853941366
 Se         2.3129776248       -1.3189305518        3.9989724642
 Se         4.8631379602       -1.8843128460        7.7353203296
 Se        -2.0702233647       -1.9664053200       -6.4603574323
 Se        -0.0447415734       -3.1598944107       -2.8087827667
 Se         2.2323233830       -4.2314257779        0.7809258171
 Se         4.8362250782       -4.9530578062        4.0967198098
 Se        -0.7551522954       -6.2847253309       -5.8413884579
 Se         1.9250015242       -7.4789550738       -2.6075924447
 Se         4.2593747953       -8.3790984248        0.7364393620
 Se         0.0356652785        7.3685867727       -0.4912753242
 Se         2.3808808703        6.5252149507        3.1424249971
 Se         0.0437108925        4.4287962925       -3.5939753446
 Se         2.5163568301        3.6274470954       -0.0568066706
 Se         4.7726605729        2.4661940254        3.1253380939
 Se         0.0455206846        1.9298862933       -6.9704575715
 Se         2.2757853622        0.7648093202       -3.6570396666
 Se         4.3766147854       -0.2853763270       -0.0177687403
 Se         6.9676845219       -1.1294481271        3.5582606715
 Se         2.2369287154       -2.2681181482       -6.6837534952
 Se         4.3736750883       -3.1974741891       -3.2156194774
 Se         6.4331167680       -4.1116727702        0.4130168618
 Se         4.8514506622        7.5524017729       -0.7458625677
 Se         4.8774230832        4.5489530306       -4.0121867785
 Se         7.0855204752        3.5934231903       -0.6428632922
 Se         4.7816042733        1.5263885703       -7.5555390194
 Se         6.9184731354        0.6112212858       -3.7073485860
 Se         9.1068192163       -0.0627261119       -0.0922745526
  C         6.9966683138       -6.9497851808       -2.8612720934
  H         7.7649322095       -7.1224747738       -3.6684216540
  O         5.8438678566       -6.4671916785       -3.1400383477
  O         7.2883442014       -7.2740256773       -1.6934632576
  C         3.3950902160       -6.2672761763       -6.9491513193
  H         4.3444066225       -6.8936096686       -7.0753272229
  O         3.0187828814       -5.7907923698       -5.7818600068
  O         2.6176116528       -6.1687871116       -7.9239011729
  C         6.3106268838       -2.9078690582       -7.4909939649
  H         7.1299137504       -3.7048862282       -7.4466889051
  O         6.0085242236       -2.3181104597       -6.3473540770
  O         5.9392339425       -2.4741345560       -8.6123871772
  C         8.9774042753       -3.3708918150       -3.4296272324
  H         9.9250180562       -3.8774829974       -3.1826003730
  O         8.5681298012       -3.4147742936       -4.6045622295
  O         8.2716297936       -2.6966841018       -2.5199778955
  C         9.7980329783       -4.6251845514        2.1809815626
  H        10.6408655401       -5.3318691344        2.3887999993
  O         9.7470094855       -4.1803769644        0.9925514082
  O         9.0283805609       -4.5680343200        3.1870118134
  C        -2.8217145153       -8.8883946428        5.3598600180
  H        -2.4154187803       -9.9024293192        5.4343946394
  O        -1.9847126136       -7.9305693879        5.0422483118
  O        -4.0904512395       -8.7272912544        5.4043280533
  C         2.9969103667       -8.6915766587        5.2874337364
  H         2.6967725338       -9.0398269484        6.2934215078
  O         1.9992658773       -8.3577484702        4.5593605850
  O         4.2233687462       -8.6004214121        4.9152525797
  C         2.8792811935       -5.7053299857        8.2323923706
  H         2.3955873073       -6.3773024893        8.9303283437
  O         2.2189082559       -4.8087648238        7.6162222062
  O         4.1498428460       -5.9033517468        8.1534429315
  C        -2.5347025481       -5.9173530870        8.5219539509
  H        -2.0052498086       -6.7390725628        9.0096019785
  O        -1.9214393703       -5.2581756222        7.5982967993
  O        -3.6522363490       -5.5082760502        8.8926232589
  C        -6.8630589767        2.3027130645        7.3891466541
  H        -7.2086193538        3.3071349018        7.3885257928
  O        -5.6211995331        2.1590438071        7.5335928759
  O        -7.6694152385        1.3701723660        7.1999395365
  C        -4.1170107293        6.2827772627        7.2281499750
  H        -5.2418933127        6.2896177269        7.3832000201
  O        -3.5265552063        5.2289843604        6.7737589047
  O        -3.5909595630        7.4672559708        7.3179552807
  C        -6.2567226102        7.1462065746        4.0781080266
  H        -7.2111390447        7.1649409639        4.6689854642
  O        -5.8089652193        6.0477892687        3.6278055187
  O        -5.6125853635        8.2206059141        3.8485963039
  C        -9.2741744230        2.9617310772        4.4604912186
  H        -9.7855372140        3.8838940690        4.7760086716
  O        -8.0587324489        3.0118706188        4.1192205509
  O       -10.0809493243        1.9791337177        4.3921349711
  C        -9.6032484158       -3.5282025184        4.2551484070
  H       -10.5971720209       -3.6001750875        4.7566807035
  O        -9.3831586502       -2.7227633086        3.2942836549
  O        -8.6784141600       -4.3015644832        4.7628997866
  C        -5.4081388865       -6.0792036893       -6.1561622545
  H        -6.0546960796       -6.5859836395       -6.8890942905
  O        -5.3109136629       -6.5039883304       -4.9650584883
  O        -4.7982430046       -5.0926881640       -6.6852252976
  C        -7.4874742204       -7.2705247464       -1.8348023565
  H        -7.8388434959       -7.7173330376       -2.7530342297
  O        -6.3886623869       -6.5549005281       -1.8841976066
  O        -8.0715590480       -7.4408002436       -0.7457396052
  C        -9.2562339524       -3.4270148206       -2.1219616648
  H        -9.5270787848       -4.0663584857       -2.9594189931
  O        -8.1697469346       -2.7553490521       -2.2726623418
  O        -9.8241042426       -3.4938918498       -1.0091357960
  C        -6.7206921890       -1.5101731746       -7.0045688873
  H        -7.7450574417       -1.9674181007       -7.1698505571
  O        -6.3196988950       -1.2781518350       -5.7989356149
  O        -6.0631429845       -1.2634444839       -8.0154138028
  C        -1.9628762163        5.6954829455       -7.4852876647
  H        -1.7770888886        6.7764005651       -7.4923242406
  O        -2.4611173923        5.1866204398       -6.4086530291
  O        -1.7564510734        5.0402395874       -8.5282301264
  C        -1.7168624070        9.0074750191       -3.7839173153
  H        -1.3493405476        9.2660238074       -4.8465614694
  O        -1.7701349621        7.7193628543       -3.5245660126
  O        -1.9637766144        9.8894470675       -2.9407159945
  C         2.5062134374        8.6538581120       -4.1272911980
  H         2.7131102182        9.0638249498       -5.0476060874
  O         2.0944682227        7.4531289878       -4.0307168962
  O         2.6627050596        9.4110851544       -3.1551174791
  C         1.7411226478        5.3672388802       -8.1968388646
  H         1.4358383610        6.4416008070       -8.3632925476
  O         2.2781605108        5.0764798298       -7.0405559115
  O         1.5313335843        4.4832476187       -9.0174666588
  C         9.4768329550        2.6096218216        3.9000132320
  H         9.6131090334        3.4671477718        4.5843902861
  O         8.5279066969        2.7173063365        3.0491111116
  O        10.1884286644        1.5400680380        4.0329754814
  C         6.6326418405        7.0382673410        3.3282190244
  H         7.5082674956        7.1289998248        4.0070788575
  O         6.4943687441        6.1603225075        2.4465423165
  O         5.7953714576        7.9029364122        3.5811612610
  C         4.7447778534        5.8524663340        6.9353618736
  H         5.7085862008        5.7040540943        7.4370666698
  O         4.3284887511        4.9885121150        6.0814629330
  O         4.1455108768        6.9223521007        7.1370302044
  C         7.5603289819        1.7452827738        7.1878414196
  H         8.1158840311        2.6116602203        7.6593692779
  O         6.7457614143        2.0301748194        6.2244133075
  O         7.8434279848        0.5820856888        7.5893901196
     227
 i =        2, time =        2.000, E =       -19.8087040205
 Cd        -8.6170198151        0.4783872497        3.4767412633
 Cd        -5.8707258569       -0.2575961136        7.1136917179
 Cd        -8.4089435889       -2.1551740684        0.3836678279
 Cd        -6.8897392097       -3.2939540531        3.9621294291