     227
 i =        0, time =        0.000, E =        49.3344039398
 Cd        -8.6216924880        0.4810107428        3.4775887729
 Cd        -5.8723589632       -0.2566559957        7.1151373767
 Cd        -8.4076147924       -2.1531404527        0.3867588804
 Cd        -6.8957642261       -3.2896665849        3.9600318291
 Cd        -3.6930098048       -3.6992689615        7.3819491709
 Cd        -6.4429261463       -6.2347087238        0.4622469067
 Cd        -4.3123952394       -6.8285875372        3.9039095072
 Cd        -6.1141073353        3.8626235599        2.9066844924
 Cd        -3.6048790416        2.8797284733        6.5917986711
 Cd        -6.7531255596        1.1841266196       -0.3182182747
 Cd        -4.0437606329        0.0729837467        3.0511954168
 Cd        -1.7753257667       -0.3121054857        6.8316599018
 Cd        -6.3661028473       -1.4630135273       -3.4383357626
 Cd        -4.3602814436       -3.1214810613       -0.1759283953
 Cd        -2.2424276819       -3.6242998489        3.6335413818
 Cd         0.1757294635       -3.9625201566        7.0364714760
 Cd        -4.2692200317       -5.9860442556       -3.0005266361
 Cd        -2.2482225396       -6.7972628816        0.6786391664
 Cd         0.0669003827       -7.3030327295        3.8545421700
 Cd        -4.0792754193        7.4105475565        2.4175118797
 Cd        -1.6116442377        6.4880648240        6.2478272306
 Cd        -4.3308002626        4.8127262164       -0.6762739309
 Cd        -1.8326132452        3.6694977750        3.1598212265
 Cd         0.4939817277        3.1637060931        6.7202662426
 Cd        -4.5980154021        1.9988297698       -4.0880170010
 Cd        -2.1651194586        1.0165564496       -0.4536921834
 Cd         0.1376109507       -0.0659106884        3.1336818174
 Cd         2.6419074521       -0.6636939286        6.8958319365
 Cd        -4.1515129292       -0.5348426091       -6.9620217917
 Cd        -2.2012490343       -1.8491984656       -3.4894107829
 Cd         0.0359311218       -2.8494155653       -0.0264680683
 Cd         2.4407298775       -3.8224684908        3.5289587884
 Cd         4.5907434619       -4.2169180472        6.5928471603
 Cd        -2.6321953796       -4.5685798778       -6.0773989300
 Cd        -0.3638438279       -6.1221236347       -3.0620735359
 Cd         1.9882729153       -6.8506852632       -0.0376753302
 Cd         4.3604701588       -7.5063202656        3.0981086138
 Cd        -2.4313710890        8.2839908015       -1.2010761441
 Cd         0.1210964618        6.7915494583        2.0748938605
 Cd         2.2602783261        6.3879934074        5.9824457591
 Cd        -2.2743307721        5.5403016700       -4.1096429978
 Cd         0.1552258413        4.6164378819       -0.9814446932
 Cd         2.6173372932        3.7540356816        2.4616712460
 Cd         4.3934694910        2.5024270436        5.6448470259
 Cd        -2.3839877703        3.0961459608       -7.5397423510
 Cd        -0.1308699873        1.7716472388       -4.3458913396
 Cd         2.1522040622        0.8595996928       -0.9600505658
 Cd         4.3027041934       -0.4425155449        2.5248589789
 Cd         6.4943132815       -0.6514444341        6.0110723312
 Cd         0.4032906214       -0.5920449882       -7.0625722312
 Cd         2.1504065746       -1.8410095193       -3.9631978812
 Cd         4.1282053355       -2.9764966895       -0.5499119195
 Cd         6.9189885741       -3.8001688729        2.8840486736
 Cd         1.0693858855       -4.7693596381       -6.7909688629
 Cd         3.6529341800       -5.7620820022       -3.6150795142
 Cd         5.7341856059       -6.5625995016       -0.3323817960
 Cd         2.4532379782        8.1225833618       -1.1556872380
 Cd         4.4025673150        7.2904811152        1.7928276254
 Cd         2.3800547108        5.2453457502       -4.8107637235
 Cd         4.8184663347        4.7191125514       -1.4277792117
 Cd         6.7589411702        3.8390778732        2.0295448973
 Cd         2.6210634084        2.7844913241       -7.7035228004
 Cd         4.8495943395        1.7843685348       -4.5225056138
 Cd         6.7261500983        1.0662237140       -0.9642295531
 Cd         8.8881450478        0.4141445330        2.4369093904
 Cd         4.3615782352       -0.9213178924       -7.7328888960
 Cd         6.7438649008       -1.9767569930       -4.2031112584
 Cd         8.5272445020       -2.6218905711       -0.2551455218
 Se        -9.0557725106        0.2424574140        0.9180313808
 Se        -6.3745872764       -0.6570220647        4.4225742627
 Se        -3.9358548519       -1.3506397678        8.2925868769
 Se        -6.5830028390       -3.7408669090        1.3890860046
 Se        -4.5802302415       -4.2716541219        4.8585926421
 Se        -4.6110671623       -7.7792240778        1.5343213278
 Se        -6.6407812351        3.9866809498        0.4586064126
 Se        -4.0705866514        2.6241591830        3.9150270775
 Se        -1.6315747320        2.0143859544        7.9219454430
 Se        -6.7106235468        0.9827493806       -3.1628202938
 Se        -4.4077684895       -0.2106461950        0.3970531668
 Se        -2.0534879979       -1.1190641497        4.2604482105
 Se         0.4069246601       -1.5676855049        8.0617057342
 Se        -4.4126107232       -3.1307459794       -2.8028288282
 Se        -2.2371864822       -4.0884616040        0.9473336128
 Se         0.1541797359       -4.8148952714        4.4843326207
 Se        -2.4147106009       -7.4199706225       -2.0529393442
 Se        -0.0662571417       -7.8800811154        1.3078284855
 Se        -4.5519687636        7.5920037884       -0.0122560791
 Se        -1.8482840651        6.3647212661        3.5390459072
 Se         0.4006735392        5.8241498358        7.5878867146
 Se        -4.4655945585        4.5529209660       -3.3484418515
 Se        -2.0798083538        3.7153034916        0.3451575142
 Se         0.4973892782        2.6967113851        3.7286137790
 Se         2.7724753484        1.9958260876        7.6298945277
 Se        -4.6126224962        2.0736182894       -6.9031574659
 Se        -2.2770211290        0.8531533747       -3.1284312065
 Se         0.0138865169       -0.1636477002        0.3858468104
 Se         2.3115473387       -1.3198431962        4.0017354986
 Se         4.8624545925       -1.8855864388        7.7371297607
 Se        -2.0700877949       -1.9675257511       -6.4603372509
 Se        -0.0447057629       -3.1582708631       -2.8090856920
 Se         2.2343306950       -4.2299664240        0.7817840723
 Se         4.8342987615       -4.9516929708        4.0974643468
 Se        -0.7556003326       -6.2829108386       -5.8406699955
 Se         1.9243057511       -7.4784768035       -2.6074198353
 Se         4.2543989663       -8.3809591814        0.7363809319
 Se         0.0386925703        7.3677075300       -0.4939635450
 Se         2.3791568525        6.5289221229        3.1400383851
 Se         0.0465974103        4.4270318221       -3.5936563407
 Se         2.5167269427        3.6273521599       -0.0581806204
 Se         4.7705604635        2.4670139639        3.1233546104
 Se         0.0435933033        1.9323944164       -6.9695738842
 Se         2.2733127965        0.7623703678       -3.6584263160
 Se         4.3816175435       -0.2841549253       -0.0177063702
 Se         6.9670500347       -1.1290204494        3.5565582379
 Se         2.2410869402       -2.2702007814       -6.6798205275
 Se         4.3723294721       -3.1971869108       -3.2130677403
 Se         6.4331938555       -4.1098532443        0.4136420186
 Se         4.8503033307        7.5509093293       -0.7463548497
 Se         4.8776288797        4.5477652435       -4.0091414448
 Se         7.0830986217        3.5950723552       -0.6434567968
 Se         4.7810064642        1.5273410534       -7.5566303287
 Se         6.9188050062        0.6130038217       -3.7081238627
 Se         9.1066871843       -0.0609359671       -0.0919647969
  C         6.9955771113       -6.9586634775       -2.8583426301
  H         7.7780160969       -7.1271873265       -3.6573399650
  O         5.8389952916       -6.4652991204       -3.1445809228
  O         7.2920676004       -7.2683568805       -1.6893132711
  C         3.3939431960       -6.2668607509       -6.9513074648
  H         4.3245440932       -6.8689211647       -7.0591687882
  O         3.0202466073       -5.7860511295       -5.7843136273
  O         2.6220129789       -6.1746538788       -7.9242101403
  C         6.3116555909       -2.9071154185       -7.4921130606
  H         7.0978863851       -3.7212906458       -7.4285512081
  O         6.0096715894       -2.3219711192       -6.3505932827
  O         5.9403243477       -2.4750431756       -8.6116316973
  C         8.9837561036       -3.3697375837       -3.4349055328
  H         9.9249943929       -3.8864043165       -3.1840078659
  O         8.5659407989       -3.4209184445       -4.6048832464
  O         8.2714489672       -2.6971151254       -2.5207012617
  C         9.7902109758       -4.6282247391        2.1768529346
  H        10.6284324694       -5.3337138149        2.3552924638
  O         9.7484501532       -4.1824896055        0.9942458601
  O         9.0219926648       -4.5705851174        3.1873629795
  C        -2.8252708508       -8.8894178348        5.3653894160
  H        -2.3915771747       -9.8892286280        5.4446685031
  O        -1.9808601030       -7.9304545651        5.0436955975
  O        -4.0908415257       -8.7280019527        5.4030844137
  C         3.0047406823       -8.6887063298        5.2919739424
  H         2.6853413808       -9.0312323512        6.2714246943
  O         1.9985977812       -8.3553887881        4.5599054594
  O         4.2197147413       -8.6069092298        4.9235206312
  C         2.8732291572       -5.7090624943        8.2322507888
  H         2.4095730423       -6.3582442170        8.9295273658
  O         2.2236878889       -4.8031284854        7.6183804854
  O         4.1525405945       -5.8988692439        8.1468427445
  C        -2.5324052264       -5.9090323801        8.5168983878
  H        -2.0058427467       -6.7599986745        9.0204193621
  O        -1.9189018681       -5.2527647032        7.5983339134
  O        -3.6521974131       -5.4981014961        8.8936623702
  C        -6.8661340661        2.3082426882        7.3884767521
  H        -7.2433530482        3.2983326111        7.3747512577
  O        -5.6189307919        2.1553364867        7.5292857639
  O        -7.6694328727        1.3672322100        7.2032576312
  C        -4.1128935570        6.2776012356        7.2258109093
  H        -5.2184092536        6.2949225170        7.4003980339
  O        -3.5215502414        5.2331222329        6.7794929280
  O        -3.5956064510        7.4679880815        7.3184340370
  C        -6.2584500423        7.1467273309        4.0778865765
  H        -7.2018864753        7.1620259062        4.6862261037
  O        -5.8042352338        6.0508881806        3.6277903665
  O        -5.6141473350        8.2227071687        3.8530055117
  C        -9.2670155991        2.9624473135        4.4549609073
  H        -9.7760873251        3.8307467380        4.7753730710
  O        -8.0580447847        3.0137717908        4.1153681461
  O       -10.0869615960        1.9755230626        4.3964141791
  C        -9.5997958208       -3.5202239981        4.2555074891
  H       -10.6284324694       -3.6062117458        4.7363993397
  O        -9.3836198173       -2.7271085544        3.2939504316
  O        -8.6749593009       -4.3055307223        4.7674147240
  C        -5.4063829718       -6.0836320759       -6.1576393485
  H        -6.0390997038       -6.5934387315       -6.8768176703
  O        -5.3157147411       -6.5042627408       -4.9638375967
  O        -4.7997118332       -5.0931497246       -6.6842330004
  C        -7.4812021438       -7.2683192216       -1.8337008205
  H        -7.8430239833       -7.7214409635       -2.7403108931
  O        -6.3847231004       -6.5596142310       -1.8855223803
  O        -8.0870004405       -7.4369608581       -0.7449951352
  C        -9.2637717352       -3.4248031045       -2.1287629167
  H        -9.5435102925       -4.0726156799       -2.9624854104
  O        -8.1685743898       -2.7562864935       -2.2769679175
  O        -9.8293124780       -3.4993302663       -1.0042472880
  C        -6.7198117275       -1.5155721631       -7.0057360974
  H        -7.7266400310       -1.9701098143       -7.1795729881
  O        -6.3208037730       -1.2812141421       -5.7891801227
  O        -6.0546670581       -1.2647410752       -8.0219575549
  C        -1.9610306020        5.6962737072       -7.4797868569
  H        -1.8068881661        6.7616764611       -7.4798700689
  O        -2.4613788677        5.1953402046       -6.4147373301
  O        -1.7592038190        5.0404242691       -8.5376948407
  C        -1.7153677193        9.0065729983       -3.7807068554
  H        -1.3518565997        9.2891789052       -4.8285272378
  O        -1.7735635219        7.7204009534       -3.5311974415
  O        -1.9589811591        9.8892286280       -2.9296575010
  C         2.5176986766        8.6527359013       -4.1276241396
  H         2.7356319561        9.0838176512       -5.0545617483
  O         2.0941304229        7.4607563111       -4.0382054964
  O         2.6632020791        9.4136986823       -3.1567247192
  C         1.7405814703        5.3615037054       -8.2026998584
  H         1.4592813282        6.4433815072       -8.3446733349
  O         2.2712544771        5.0744229803       -7.0359036782
  O         1.5374971892        4.4786315137       -9.0204193621
  C         9.4791869119        2.6134878200        3.9079418032
  H         9.6264681644        3.4611325178        4.5867541287
  O         8.5294682966        2.7206869475        3.0468687327
  O        10.1884170796        1.5361363159        4.0354546634
  C         6.6320899766        7.0427804887        3.3240585285
  H         7.5183451153        7.1103565644        4.0025867163
  O         6.4921259472        6.1579139584        2.4473334656
  O         5.8014508194        7.8970951585        3.5804466065
  C         4.7468288793        5.8510846562        6.9391041765
  H         5.6837062732        5.7110173508        7.4566454645
  O         4.3315486404        4.9881730889        6.0840680113
  O         4.1390624477        6.9214380767        7.1338855679
  C         7.5642974957        1.7429307679        7.1823006621
  H         8.1116275708        2.6102062210        7.6466333920
  O         6.7423080014        2.0330978891        6.2208765696
  O         7.8434776238        0.5800715711        7.5931108165
     227
 i =        1, time =        1.000, E =        48.6446865551
 Cd        -8.6191669140        0.4792730490        3.4777492631
 Cd        -5.8728444582       -0.2568891047        7.1138539284
 Cd        -8.4082883052       -2.1548921549        0.3847115607
 Cd        -6.8922173078       -3.2911198630        3.9612040664
 Cd        -3.6902920726       -3.7011144216        7.3817154496
 Cd        -6.4423460672       -6.2355172018        0.4644547209
 Cd        -4.3121787114       -6.8292262859        3.9062252903
 Cd        -6.1168308696        3.8608301286        2.9068008093
 Cd        -3.6074148371        2.8815452954        6.5896405234
 Cd        -6.7533503448        1.1874069528       -0.3192803796
 Cd        -4.0448708313        0.0755023996        3.0498910433
 Cd        -1.7742105110       -0.3134269669        6.8331445837
 Cd        -6.3663588355       -1.4642578026       -3.4401438845
 Cd        -4.3621515091       -3.1213057263       -0.1743174489
 Cd        -2.2424690698       -3.6225443800        3.6334729060
 Cd         0.1778039160       -3.9619758025        7.0369280265
 Cd        -4.2700157490       -5.9870221311       -2.9988807518
 Cd        -2.2498908170       -6.7959772045        0.6787429815
 Cd         0.0673273610       -7.3038119811        3.8546148089
 Cd        -4.0792681927        7.4117356042        2.4195469494
 Cd        -1.6116240931        6.4888831236        6.2500890145
 Cd        -4.3324217585        4.8131398732       -0.6767972969
 Cd        -1.8303626378        3.6700417729        3.1584899375
 Cd         0.4898434635        3.1635921006        6.7198556116
 Cd        -4.5983399039        2.0002372208       -4.0898686305
 Cd        -2.1632391205        1.0187404679       -0.4516472755
 Cd         0.1382986146       -0.0676402769        3.1342266489
 Cd         2.6424090486       -0.6633311307        6.8951710644
 Cd        -4.1541299405       -0.5349382510       -6.9610814507
 Cd        -2.2033364715       -1.8485962219       -3.4905642104
 Cd         0.0357007479       -2.8475314668       -0.0251498709
 Cd         2.4399856772       -3.8226159703        3.5301345214
 Cd         4.5938763575       -4.2153759653        6.5947319747
 Cd        -2.6323429992       -4.5693879689       -6.0783173880
 Cd        -0.3606788028       -6.1201470955       -3.0632787050
 Cd         1.9868541826       -6.8520447665       -0.0371864045
 Cd         4.3580897731       -7.5032945892        3.0967931056
 Cd        -2.4311555964        8.2872837683       -1.2008016218
 Cd         0.1211309345        6.7915723950        2.0734447136
 Cd         2.2583660778        6.3883099131        5.9809500178
 Cd        -2.2733913695        5.5411541690       -4.1124616539
 Cd         0.1544048819        4.6149319970       -0.9817117354
 Cd         2.6161261046        3.7542258503        2.4622949969
 Cd         4.3941050045        2.5016067670        5.6453959404
 Cd        -2.3855578077        3.0931759467       -7.5403350574
 Cd        -0.1311774199        1.7710004406       -4.3471639708
 Cd         2.1528695866        0.8605125832       -0.9631523415
 Cd         4.3040918531       -0.4400861497        2.5258987899
 Cd         6.4919521928       -0.6513389890        6.0113841399
 Cd         0.4031560022       -0.5929862353       -7.0626301753
 Cd         2.1509308360       -1.8416208192       -3.9632510037
 Cd         4.1301195551       -2.9777036228       -0.5482882301
 Cd         6.9197343856       -3.7964762024        2.8867409922
 Cd         1.0697359818       -4.7680378727       -6.7913146872
 Cd         3.6507960758       -5.7623236846       -3.6171762353
 Cd         5.7320771001       -6.5631576033       -0.3323689552
 Cd         2.4538966446        8.1229446719       -1.1568139130
 Cd         4.4057922336        7.2902120840        1.7945847545
 Cd         2.3803796813        5.2450454960       -4.8079229653
 Cd         4.8182104968        4.7188836004       -1.4274034887
 Cd         6.7583689449        3.8405685402        2.0310161340
 Cd         2.6204911026        2.7833363125       -7.7034916571
 Cd         4.8476994145        1.7853833209       -4.5239190146
 Cd         6.7272267663        1.0638670723       -0.9630721634
 Cd         8.8868508221        0.4154323873        2.4353297593
 Cd         4.3613713395       -0.9242591276       -7.7313066133
 Cd         6.7423954108       -1.9757656654       -4.2009494242
 Cd         8.5294407933       -2.6208070550       -0.2524039121
 Se        -9.0570245099        0.2452204117        0.9171244581
 Se        -6.3731489022       -0.6561446229        4.4187961635
 Se        -3.9335319119       -1.3483108157        8.3001131034
 Se        -6.5828829442       -3.7432145299        1.3871648242
 Se        -4.5791634191       -4.2762536840        4.8610097141
 Se        -4.6127637348       -7.7795691832        1.5321027505
 Se        -6.6446364239        3.9856890454        0.4550302666
 Se        -4.0724909920        2.6205598505        3.9155030303
 Se        -1.6320451441        2.0131233459        7.9285630725
 Se        -6.7156924900        0.9853661649       -3.1643045504
 Se        -4.4079107835       -0.2116826937        0.3944823535
 Se        -2.0523869274       -1.1145714885        4.2602650323
 Se         0.4057247212       -1.5658363049        8.0672845527
 Se        -4.4166462189       -3.1316283210       -2.8059295161
 Se        -2.2363664210       -4.0918245826        0.9474344325
 Se         0.1523789586       -4.8122327246        4.4864296246
 Se        -2.4162498569       -7.4237406400       -2.0534463785
 Se        -0.0653278775       -7.8823273415        1.3097483948
 Se        -4.5555789343        7.5955551606       -0.0149687283
 Se        -1.8491041259        6.3640752100        3.5422611705
 Se         0.4041298356        5.8257181981        7.5902408483
 Se        -4.4690456606        4.5548271079       -3.3490546806
 Se        -2.0808598516        3.7149441112        0.3431846972
 Se         0.4991049775        2.6960153308        3.7301404074
 Se         2.7719748816        1.9961026957        7.6286470126
 Se        -4.6162645148        2.0752758479       -6.9054357914
 Se        -2.2795636615        0.8533654255       -3.1264470918
 Se         0.0153550089       -0.1634613069        0.3858054789
 Se         2.3131432410       -1.3172011393        4.0009098023
 Se         4.8640850062       -1.8840355979        7.7379926417
 Se        -2.0687879409       -1.9667977081       -6.4609537828
 Se        -0.0435330150       -3.1611754871       -2.8087254648
 Se         2.2318676082       -4.2321155069        0.7812486549
 Se         4.8366580114       -4.9545168781        4.0968789697
 Se        -0.7553879933       -6.2885261147       -5.8415298260
 Se         1.9251033058       -7.4814943739       -2.6087747782
 Se         4.2589016329       -8.3827764960        0.7348915579
 Se         0.0349572632        7.3695726746       -0.4919502299
 Se         2.3820744037        6.5251662128        3.1452069856
 Se         0.0445989843        4.4288915703       -3.5950216925
 Se         2.5167268071        3.6272725007       -0.0598295435
 Se         4.7741233632        2.4648684173        3.1245863445
 Se         0.0452035638        1.9319226291       -6.9725705031
 Se         2.2769556611        0.7659627838       -3.6573608764
 Se         4.3777272662       -0.2852477233       -0.0197604787
 Se         6.9681861538       -1.1298970733        3.5569039399
 Se         2.2388450457       -2.2703031004       -6.6846353083
 Se         4.3748351753       -3.1974320717       -3.2162777644
 Se         6.4327516026       -4.1122313911        0.4108203294
 Se         4.8556031945        7.5526768205       -0.7473281036
 Se         4.8785161315        4.5496165049       -4.0146627678
 Se         7.0879876045        3.5955058951       -0.6428988451
 Se         4.7854910349        1.5284546098       -7.5557122355
 Se         6.9217317071        0.6110938067       -3.7073482380
 Se         9.1089889118       -0.0618957028       -0.0940033731
  C         6.9966759692       -6.9498270074       -2.8612701553
  H         7.7649322095       -7.1224747738       -3.6684216540
  O         5.8503867065       -6.4702985825       -3.1394766914
  O         7.2998059230       -7.2794012067       -1.7035841042
  C         3.3950715938       -6.2672990726       -6.9491739558
  H         4.3444066225       -6.8936096686       -7.0753272229
  O         3.0201130526       -5.7933610408       -5.7904140451
  O         2.6211713844       -6.1719334848       -7.9265158951
  C         6.3106276933       -2.9078550248       -7.4910409467
  H         7.1299137504       -3.7048862282       -7.4466889051
  O         6.0083081092       -2.3203762904       -6.3549266233
  O         5.9426906161       -2.4774580436       -8.6143180179
  C         8.9774378444       -3.3708833562       -3.4296436811
  H         9.9250180562       -3.8774829974       -3.1826003730
  O         8.5725624834       -3.4182671314       -4.6055700719
  O         8.2745448643       -2.6994291743       -2.5262186983
  C         9.7980647147       -4.6251970052        2.1809941517
  H        10.6408655401       -5.3318691344        2.3887999993
  O         9.7535757172       -4.1846815060        0.9963944583
  O         9.0382634653       -4.5717319583        3.1887252856
  C        -2.8217271704       -8.8884278539        5.3598597997
  H        -2.4154187803       -9.9024293192        5.4343946394
  O        -1.9874395476       -7.9321988585        5.0443995186
  O        -4.0900746528       -8.7304072572        5.4069631162
  C         2.9969191295       -8.6916116884        5.2874283109
  H         2.6967725338       -9.0398269484        6.2934215078
  O         2.0054889826       -8.3616344954        4.5622561629
  O         4.2219003339       -8.6117889477        4.9333344993
  C         2.8792988667       -5.7053276882        8.2324194751
  H         2.3955873073       -6.3773024893        8.9303283437
  O         2.2257920609       -4.8130925084        7.6194502542
  O         4.1485606733       -5.9083407060        8.1580127738
  C        -2.5347107190       -5.9173490942        8.5219943416
  H        -2.0052498086       -6.7390725628        9.0096019785
  O        -1.9194914143       -5.2631713818        7.6001400814
  O        -3.6521030314       -5.5129893304        8.8965672935
  C        -6.8630658833        2.3027076369        7.3891927225
  H        -7.2086193538        3.3071349018        7.3885257928
  O        -5.6269167328        2.1605878862        7.5370291197
  O        -7.6727334115        1.3733824246        7.2008549436
  C        -4.1169998011        6.2827979949        7.2281819506
  H        -5.2418933127        6.2896177269        7.3832000201
  O        -3.5319482887        5.2316737312        6.7762221157
  O        -3.5937400385        7.4686321123        7.3194919367
  C        -6.2567383597        7.1462350358        4.0780961854
  H        -7.2111390447        7.1649409639        4.6689854642
  O        -5.8103316323        6.0534738520        3.6316353805
  O        -5.6198481779        8.2244607092        3.8554256575
  C        -9.2742103190        2.9617512911        4.4604802642
  H        -9.7855372140        3.8838940690        4.7760086716
  O        -8.0618285347        3.0119042598        4.1215298132
  O       -10.0865474998        1.9848731553        4.3958039688
  C        -9.6032729804       -3.5282164082        4.2551630067
  H       -10.5971720209       -3.6001750875        4.7566807035
  O        -9.3863427878       -2.7228784734        3.2951977842
  O        -8.6901160508       -4.3081348201        4.7682646689
  C        -5.4081383937       -6.0792275630       -6.1561877483
  H        -6.0546960796       -6.5859836395       -6.8890942905
  O        -5.3150727857       -6.5061366932       -4.9726409305
  O        -4.8053858779       -5.0945149031       -6.6872920487
  C        -7.4874896578       -7.2705630948       -1.8347958643
  H        -7.8388434959       -7.7173330376       -2.7530342297
  O        -6.3917814772       -6.5565460632       -1.8881832077
  O        -8.0754544723       -7.4435691515       -0.7486007413
  C        -9.2562690550       -3.4270015659       -2.1219729246
  H        -9.5270787848       -4.0663584857       -2.9594189931
  O        -8.1722687932       -2.7569421842       -2.2723356005
  O        -9.8269876317       -3.4964591587       -1.0119122732
  C        -6.7207063275       -1.5101503348       -7.0045941454
  H        -7.7450574417       -1.9674181007       -7.1698505571
  O        -6.3212784116       -1.2797183804       -5.8054199871
  O        -6.0700923679       -1.2664973978       -8.0193262357
  C        -1.9629022319        5.6954889113       -7.4853121631
  H        -1.7770888886        6.7764005651       -7.4923242406
  O        -2.4614710981        5.1909028659       -6.4135429020
  O        -1.7540764317        5.0484922644       -8.5324857946
  C        -1.7168880269        9.0075035216       -3.7839145401
  H        -1.3493405476        9.2660238074       -4.8465614694
  O        -1.7688078565        7.7266347874       -3.5267573645
  O        -1.9630369680        9.8925637095       -2.9440498155
  C         2.5062357971        8.6538828380       -4.1272907032
  H         2.7131102182        9.0638249498       -5.0476060874
  O         2.0941751753        7.4592052679       -4.0295636136
  O         2.6627688576        9.4140737517       -3.1596442365
  C         1.7411528706        5.3672422130       -8.1968625607
  H         1.4358383610        6.4416008070       -8.3632925476
  O         2.2771837280        5.0801801753       -7.0512181454
  O         1.5298877588        4.4873490427       -9.0206907111
  C         9.4768763795        2.6096268677        3.9000013284
  H         9.6131090334        3.4671477718        4.5843902861
  O         8.5332179664        2.7183160889        3.0533638357
  O        10.1919176701        1.5430739066        4.0371582088
  C         6.6326579354        7.0383002640        3.3282050368
  H         7.5082674956        7.1289998248        4.0070788575
  O         6.4968892225        6.1641497909        2.4488493032
  O         5.7997547687        7.9048194295        3.5858499417
  C         4.7447685534        5.8524809432        6.9353940445
  H         5.7085862008        5.7040540943        7.4370666698
  O         4.3312753520        4.9900745303        6.0823077524
  O         4.1538149254        6.9247182891        7.1419106785
  C         7.5603366908        1.7452811781        7.1878781343
  H         8.1158840311        2.6116602203        7.6593692779
  O         6.7494937989        2.0305563452        6.2260747549
  O         7.8461073592        0.5845078573        7.5921337285
     227
 i =        2, time =        2.000, E =        46.8090899886
 Cd        -8.6163994583        0.4769163787        3.4791057512
 Cd        -5.8759273251       -0.2564432736        7.1115200378
 Cd        -8.4091712271       -2.1581145413        0.3816230978
 Cd        -6.8879248366       -3.2913415855        3.9626796824