     227
 i =        0, time =        0.000, E =        -7.4748909631
 Cd        -8.6216924880        0.4810107428        3.4775887729
 Cd        -5.8723589632       -0.2566559957        7.1151373767
 Cd        -8.4076147924       -2.1531404527        0.3867588804
 Cd        -6.8957642261       -3.2896665849        3.9600318291
 Cd        -3.6930098048       -3.6992689615        7.3819491709
 Cd        -6.4429261463       -6.2347087238        0.4622469067
 Cd        -4.3123952394       -6.8285875372        3.9039095072
 Cd        -6.1141073353        3.8626235599        2.9066844924
 Cd        -3.6048790416        2.8797284733        6.5917986711
 Cd        -6.7531255596        1.1841266196       -0.3182182747
 Cd        -4.0437606329        0.0729837467        3.0511954168
 Cd        -1.7753257667       -0.3121054857        6.8316599018
 Cd        -6.3661028473       -1.4630135273       -3.4383357626
 Cd        -4.3602814436       -3.1214810613       -0.1759283953
 Cd        -2.2424276819       -3.6242998489        3.6335413818
 Cd         0.1757294635       -3.9625201566        7.0364714760
 Cd        -4.2692200317       -5.9860442556       -3.0005266361
 Cd        -2.2482225396       -6.7972628816        0.6786391664
 Cd         0.0669003827       -7.3030327295        3.8545421700
 Cd        -4.0792754193        7.4105475565        2.4175118797
 Cd        -1.6116442377        6.4880648240        6.2478272306
 Cd        -4.3308002626        4.8127262164       -0.6762739309
 Cd        -1.8326132452        3.6694977750        3.1598212265
 Cd         0.4939817277        3.1637060931        6.7202662426
 Cd        -4.5980154021        1.9988297698       -4.0880170010
 Cd        -2.1651194586        1.0165564496       -0.4536921834
 Cd         0.1376109507       -0.0659106884        3.1336818174
 Cd         2.6419074521       -0.6636939286        6.8958319365
 Cd        -4.1515129292       -0.5348426091       -6.9620217917
 Cd        -2.2012490343       -1.8491984656       -3.4894107829
 Cd         0.0359311218       -2.8494155653       -0.0264680683
 Cd         2.4407298775       -3.8224684908        3.5289587884
 Cd         4.5907434619       -4.2169180472        6.5928471603
 Cd        -2.6321953796       -4.5685798778       -6.0773989300
 Cd        -0.3638438279       -6.1221236347       -3.0620735359
 Cd         1.9882729153       -6.8506852632       -0.0376753302
 Cd         4.3604701588       -7.5063202656        3.0981086138
 Cd        -2.4313710890        8.2839908015       -1.2010761441
 Cd         0.1210964618        6.7915494583        2.0748938605
 Cd         2.2602783261        6.3879934074        5.9824457591
 Cd        -2.2743307721        5.5403016700       -4.1096429978
 Cd         0.1552258413        4.6164378819       -0.9814446932
 Cd         2.6173372932        3.7540356816        2.4616712460
 Cd         4.3934694910        2.5024270436        5.6448470259
 Cd        -2.3839877703        3.0961459608       -7.5397423510
 Cd        -0.1308699873        1.7716472388       -4.3458913396
 Cd         2.1522040622        0.8595996928       -0.9600505658
 Cd         4.3027041934       -0.4425155449        2.5248589789
 Cd         6.4943132815       -0.6514444341        6.0110723312
 Cd         0.4032906214       -0.5920449882       -7.0625722312
 Cd         2.1504065746       -1.8410095193       -3.9631978812
 Cd         4.1282053355       -2.9764966895       -0.5499119195
 Cd         6.9189885741       -3.8001688729        2.8840486736
 Cd         1.0693858855       -4.7693596381       -6.7909688629
 Cd         3.6529341800       -5.7620820022       -3.6150795142
 Cd         5.7341856059       -6.5625995016       -0.3323817960
 Cd         2.4532379782        8.1225833618       -1.1556872380
 Cd         4.4025673150        7.2904811152        1.7928276254
 Cd         2.3800547108        5.2453457502       -4.8107637235
 Cd         4.8184663347        4.7191125514       -1.4277792117
 Cd         6.7589411702        3.8390778732        2.0295448973
 Cd         2.6210634084        2.7844913241       -7.7035228004
 Cd         4.8495943395        1.7843685348       -4.5225056138
 Cd         6.7261500983        1.0662237140       -0.9642295531
 Cd         8.8881450478        0.4141445330        2.4369093904
 Cd         4.3615782352       -0.9213178924       -7.7328888960
 Cd         6.7438649008       -1.9767569930       -4.2031112584
 Cd         8.5272445020       -2.6218905711       -0.2551455218
 Se        -9.0557725106        0.2424574140        0.9180313808
 Se        -6.3745872764       -0.6570220647        4.4225742627
 Se        -3.9358548519       -1.3506397678        8.2925868769
 Se        -6.5830028390       -3.7408669090        1.3890860046
 Se        -4.5802302415       -4.2716541219        4.8585926421
 Se        -4.6110671623       -7.7792240778        1.5343213278
 Se        -6.6407812351        3.9866809498        0.4586064126
 Se        -4.0705866514        2.6241591830        3.9150270775
 Se        -1.6315747320        2.0143859544        7.9219454430
 Se        -6.7106235468        0.9827493806       -3.1628202938
 Se        -4.4077684895       -0.2106461950        0.3970531668
 Se        -2.0534879979       -1.1190641497        4.2604482105
 Se         0.4069246601       -1.5676855049        8.0617057342
 Se        -4.4126107232       -3.1307459794       -2.8028288282
 Se        -2.2371864822       -4.0884616040        0.9473336128
 Se         0.1541797359       -4.8148952714        4.4843326207
 Se        -2.4147106009       -7.4199706225       -2.0529393442
 Se        -0.0662571417       -7.8800811154        1.3078284855
 Se        -4.5519687636        7.5920037884       -0.0122560791
 Se        -1.8482840651        6.3647212661        3.5390459072
 Se         0.4006735392        5.8241498358        7.5878867146
 Se        -4.4655945585        4.5529209660       -3.3484418515
 Se        -2.0798083538        3.7153034916        0.3451575142
 Se         0.4973892782        2.6967113851        3.7286137790
 Se         2.7724753484        1.9958260876        7.6298945277
 Se        -4.6126224962        2.0736182894       -6.9031574659
 Se        -2.2770211290        0.8531533747       -3.1284312065
 Se         0.0138865169       -0.1636477002        0.3858468104
 Se         2.3115473387       -1.3198431962        4.0017354986
 Se         4.8624545925       -1.8855864388        7.7371297607
 Se        -2.0700877949       -1.9675257511       -6.4603372509
 Se        -0.0447057629       -3.1582708631       -2.8090856920
 Se         2.2343306950       -4.2299664240        0.7817840723
 Se         4.8342987615       -4.9516929708        4.0974643468
 Se        -0.7556003326       -6.2829108386       -5.8406699955
 Se         1.9243057511       -7.4784768035       -2.6074198353
 Se         4.2543989663       -8.3809591814        0.7363809319
 Se         0.0386925703        7.3677075300       -0.4939635450
 Se         2.3791568525        6.5289221229        3.1400383851
 Se         0.0465974103        4.4270318221       -3.5936563407
 Se         2.5167269427        3.6273521599       -0.0581806204
 Se         4.7705604635        2.4670139639        3.1233546104
 Se         0.0435933033        1.9323944164       -6.9695738842
 Se         2.2733127965        0.7623703678       -3.6584263160
 Se         4.3816175435       -0.2841549253       -0.0177063702
 Se         6.9670500347       -1.1290204494        3.5565582379
 Se         2.2410869402       -2.2702007814       -6.6798205275
 Se         4.3723294721       -3.1971869108       -3.2130677403
 Se         6.4331938555       -4.1098532443        0.4136420186
 Se         4.8503033307        7.5509093293       -0.7463548497
 Se         4.8776288797        4.5477652435       -4.0091414448
 Se         7.0830986217        3.5950723552       -0.6434567968
 Se         4.7810064642        1.5273410534       -7.5566303287
 Se         6.9188050062        0.6130038217       -3.7081238627
 Se         9.1066871843       -0.0609359671       -0.0919647969
  C         6.9955771113       -6.9586634775       -2.8583426301
  H         7.7780160969       -7.1271873265       -3.6573399650
  O         5.8389952916       -6.4652991204       -3.1445809228
  O         7.2920676004       -7.2683568805       -1.6893132711
  C         3.3939431960       -6.2668607509       -6.9513074648
  H         4.3245440932       -6.8689211647       -7.0591687882
  O         3.0202466073       -5.7860511295       -5.7843136273
  O         2.6220129789       -6.1746538788       -7.9242101403
  C         6.3116555909       -2.9071154185       -7.4921130606
  H         7.0978863851       -3.7212906458       -7.4285512081
  O         6.0096715894       -2.3219711192       -6.3505932827
  O         5.9403243477       -2.4750431756       -8.6116316973
  C         8.9837561036       -3.3697375837       -3.4349055328
  H         9.9249943929       -3.8864043165       -3.1840078659
  O         8.5659407989       -3.4209184445       -4.6048832464
  O         8.2714489672       -2.6971151254       -2.5207012617
  C         9.7902109758       -4.6282247391        2.1768529346
  H        10.6284324694       -5.3337138149        2.3552924638
  O         9.7484501532       -4.1824896055        0.9942458601
  O         9.0219926648       -4.5705851174        3.1873629795
  C        -2.8252708508       -8.8894178348        5.3653894160
  H        -2.3915771747       -9.8892286280        5.4446685031
  O        -1.9808601030       -7.9304545651        5.0436955975
  O        -4.0908415257       -8.7280019527        5.4030844137
  C         3.0047406823       -8.6887063298        5.2919739424
  H         2.6853413808       -9.0312323512        6.2714246943
  O         1.9985977812       -8.3553887881        4.5599054594
  O         4.2197147413       -8.6069092298        4.9235206312
  C         2.8732291572       -5.7090624943        8.2322507888
  H         2.4095730423       -6.3582442170        8.9295273658
  O         2.2236878889       -4.8031284854        7.6183804854
  O         4.1525405945       -5.8988692439        8.1468427445
  C        -2.5324052264       -5.9090323801        8.5168983878
  H        -2.0058427467       -6.7599986745        9.0204193621
  O        -1.9189018681       -5.2527647032        7.5983339134
  O        -3.6521974131       -5.4981014961        8.8936623702
  C        -6.8661340661        2.3082426882        7.3884767521
  H        -7.2433530482        3.2983326111        7.3747512577
  O        -5.6189307919        2.1553364867        7.5292857639
  O        -7.6694328727        1.3672322100        7.2032576312
  C        -4.1128935570        6.2776012356        7.2258109093
  H        -5.2184092536        6.2949225170        7.4003980339
  O        -3.5215502414        5.2331222329        6.7794929280
  O        -3.5956064510        7.4679880815        7.3184340370
  C        -6.2584500423        7.1467273309        4.0778865765
  H        -7.2018864753        7.1620259062        4.6862261037
  O        -5.8042352338        6.0508881806        3.6277903665
  O        -5.6141473350        8.2227071687        3.8530055117
  C        -9.2670155991        2.9624473135        4.4549609073
  H        -9.7760873251        3.8307467380        4.7753730710
  O        -8.0580447847        3.0137717908        4.1153681461
  O       -10.0869615960        1.9755230626        4.3964141791
  C        -9.5997958208       -3.5202239981        4.2555074891
  H       -10.6284324694       -3.6062117458        4.7363993397
  O        -9.3836198173       -2.7271085544        3.2939504316
  O        -8.6749593009       -4.3055307223        4.7674147240
  C        -5.4063829718       -6.0836320759       -6.1576393485
  H        -6.0390997038       -6.5934387315       -6.8768176703
  O        -5.3157147411       -6.5042627408       -4.9638375967
  O        -4.7997118332       -5.0931497246       -6.6842330004
  C        -7.4812021438       -7.2683192216       -1.8337008205
  H        -7.8430239833       -7.7214409635       -2.7403108931
  O        -6.3847231004       -6.5596142310       -1.8855223803
  O        -8.0870004405       -7.4369608581       -0.7449951352
  C        -9.2637717352       -3.4248031045       -2.1287629167
  H        -9.5435102925       -4.0726156799       -2.9624854104
  O        -8.1685743898       -2.7562864935       -2.2769679175
  O        -9.8293124780       -3.4993302663       -1.0042472880
  C        -6.7198117275       -1.5155721631       -7.0057360974
  H        -7.7266400310       -1.9701098143       -7.1795729881
  O        -6.3208037730       -1.2812141421       -5.7891801227
  O        -6.0546670581       -1.2647410752       -8.0219575549
  C        -1.9610306020        5.6962737072       -7.4797868569
  H        -1.8068881661        6.7616764611       -7.4798700689
  O        -2.4613788677        5.1953402046       -6.4147373301
  O        -1.7592038190        5.0404242691       -8.5376948407
  C        -1.7153677193        9.0065729983       -3.7807068554
  H        -1.3518565997        9.2891789052       -4.8285272378
  O        -1.7735635219        7.7204009534       -3.5311974415
  O        -1.9589811591        9.8892286280       -2.9296575010
  C         2.5176986766        8.6527359013       -4.1276241396
  H         2.7356319561        9.0838176512       -5.0545617483
  O         2.0941304229        7.4607563111       -4.0382054964
  O         2.6632020791        9.4136986823       -3.1567247192
  C         1.7405814703        5.3615037054       -8.2026998584
  H         1.4592813282        6.4433815072       -8.3446733349
  O         2.2712544771        5.0744229803       -7.0359036782
  O         1.5374971892        4.4786315137       -9.0204193621
  C         9.4791869119        2.6134878200        3.9079418032
  H         9.6264681644        3.4611325178        4.5867541287
  O         8.5294682966        2.7206869475        3.0468687327
  O        10.1884170796        1.5361363159        4.0354546634
  C         6.6320899766        7.0427804887        3.3240585285
  H         7.5183451153        7.1103565644        4.0025867163
  O         6.4921259472        6.1579139584        2.4473334656
  O         5.8014508194        7.8970951585        3.5804466065
  C         4.7468288793        5.8510846562        6.9391041765
  H         5.6837062732        5.7110173508        7.4566454645
  O         4.3315486404        4.9881730889        6.0840680113
  O         4.1390624477        6.9214380767        7.1338855679
  C         7.5642974957        1.7429307679        7.1823006621
  H         8.1116275708        2.6102062210        7.6466333920
  O         6.7423080014        2.0330978891        6.2208765696
  O         7.8434776238        0.5800715711        7.5931108165
     227
 i =        1, time =        1.000, E =        -7.4841533564
 Cd        -8.6193390618        0.4796309362        3.4771764750
 Cd        -5.8715479758       -0.2572001199        7.1143883851
 Cd        -8.4082114555       -2.1541410508        0.3852305532
 Cd        -6.8927234554       -3.2918005434        3.9610989459
 Cd        -3.6901795410       -3.7003916405        7.3823608989
 Cd        -6.4419734413       -6.2357451347        0.4642847508
 Cd        -4.3123507167       -6.8296043280        3.9052257197
 Cd        -6.1163781180        3.8609245683        2.9055740526
 Cd        -3.6066222928        2.8812277851        6.5903842724
 Cd        -6.7534177422        1.1872314866       -0.3192196792
 Cd        -4.0444105059        0.0755168298        3.0501735327
 Cd        -1.7741913197       -0.3125836333        6.8335537218
 Cd        -6.3660858570       -1.4624584535       -3.4401673774
 Cd        -4.3613554785       -3.1217794782       -0.1745537503
 Cd        -2.2426060481       -3.6215807680        3.6336008797
 Cd         0.1786889061       -3.9615921690        7.0369272007
 Cd        -4.2693677370       -5.9882002331       -2.9988614054
 Cd        -2.2487213656       -6.7966032626        0.6791701263
 Cd         0.0677808707       -7.3029939976        3.8542323630
 Cd        -4.0802636650        7.4119322512        2.4182800590
 Cd        -1.6107833002        6.4879434735        6.2509411555
 Cd        -4.3325137476        4.8128086066       -0.6769417031
 Cd        -1.8303873280        3.6695965745        3.1589364172
 Cd         0.4898043598        3.1633525590        6.7205043851
 Cd        -4.5995966778        2.0001005930       -4.0890184612
 Cd        -2.1628873187        1.0181300717       -0.4517472794
 Cd         0.1384247475       -0.0681607440        3.1344013887
 Cd         2.6424457924       -0.6635586130        6.8958726472
 Cd        -4.1540629046       -0.5351480868       -6.9611264403
 Cd        -2.2031748300       -1.8490926242       -3.4900326072
 Cd         0.0358059532       -2.8474722867       -0.0250975518
 Cd         2.4397160781       -3.8215652791        3.5304592462
 Cd         4.5938423674       -4.2151932705        6.5946689622
 Cd        -2.6316937835       -4.5699625000       -6.0785349378
 Cd        -0.3609644189       -6.1210300901       -3.0631278113
 Cd         1.9864146455       -6.8523266861       -0.0374550811
 Cd         4.3578771561       -7.5050126587        3.0973873879
 Cd        -2.4320405083        8.2867345249       -1.2003495262
 Cd         0.1211450605        6.7911435279        2.0747664482
 Cd         2.2580887789        6.3879442966        5.9826067944
 Cd        -2.2740260261        5.5405502989       -4.1121211614
 Cd         0.1544597729        4.6148597495       -0.9823224918
 Cd         2.6165118199        3.7533696246        2.4610491664
 Cd         4.3939145910        2.5015216975        5.6446997875
 Cd        -2.3864582614        3.0936941718       -7.5399019413
 Cd        -0.1312615533        1.7709118172       -4.3474109891
 Cd         2.1531535024        0.8600270714       -0.9631965225
 Cd         4.3034695233       -0.4402602672        2.5248306099
 Cd         6.4920160569       -0.6517809523        6.0104969578
 Cd         0.4042433868       -0.5927814549       -7.0621380649
 Cd         2.1512960720       -1.8410991675       -3.9633253497
 Cd         4.1299654507       -2.9780136276       -0.5482294623
 Cd         6.9198145673       -3.7969689120        2.8855527392
 Cd         1.0695432401       -4.7691713731       -6.7906849104
 Cd         3.6506207711       -5.7625050593       -3.6177013747
 Cd         5.7329408859       -6.5640032424       -0.3327607273
 Cd         2.4550968675        8.1223071051       -1.1566008499
 Cd         4.4053417192        7.2897998329        1.7948187576
 Cd         2.3804028117        5.2451965109       -4.8087063916
 Cd         4.8189586598        4.7184579272       -1.4283834203
 Cd         6.7582256893        3.8401555800        2.0311378445
 Cd         2.6217758971        2.7829008269       -7.7033774590
 Cd         4.8493055892        1.7846768280       -4.5231434328
 Cd         6.7276976128        1.0649942802       -0.9631007037
 Cd         8.8867411315        0.4155692425        2.4348038042
 Cd         4.3617818430       -0.9226361760       -7.7309326112
 Cd         6.7427618779       -1.9756149332       -4.2012630201
 Cd         8.5291326112       -2.6208009022       -0.2527775670
 Se        -9.0548299138        0.2429261861        0.9182971739
 Se        -6.3727745435       -0.6564768800        4.4183180230
 Se        -3.9345152541       -1.3489264950        8.2965997931
 Se        -6.5831265584       -3.7425423774        1.3880688598
 Se        -4.5790859556       -4.2748610331        4.8597545164
 Se        -4.6122427421       -7.7766507631        1.5328231082
 Se        -6.6423191238        3.9855729258        0.4576603402
 Se        -4.0719844460        2.6208461035        3.9143191839
 Se        -1.6333023691        2.0117630347        7.9252021030
 Se        -6.7117511422        0.9829419613       -3.1654540976
 Se        -4.4070889652       -0.2111973889        0.3948825366
 Se        -2.0531278444       -1.1153376631        4.2594049342
 Se         0.4059988127       -1.5661436155        8.0651286060
 Se        -4.4160927525       -3.1300193956       -2.8046918388
 Se        -2.2374296129       -4.0915976408        0.9472102752
 Se         0.1530487347       -4.8127520072        4.4858173824
 Se        -2.4165598270       -7.4206831816       -2.0539412885
 Se        -0.0669320078       -7.8792038678        1.3095409407
 Se        -4.5522038808        7.5948555356       -0.0126389312
 Se        -1.8468050379        6.3633120485        3.5401135880
 Se         0.4037117944        5.8261566354        7.5859624267
 Se        -4.4660939015        4.5539799230       -3.3489574858
 Se        -2.0809894709        3.7152487215        0.3431799832
 Se         0.4982457978        2.6969894659        3.7287050234
 Se         2.7718029076        1.9958783903        7.6262711662
 Se        -4.6132454950        2.0747900295       -6.9049196890
 Se        -2.2789060088        0.8535259849       -3.1261048224
 Se         0.0145662579       -0.1632241006        0.3854035473
 Se         2.3129709919       -1.3189051208        3.9990439135
 Se         4.8631716829       -1.8842959495        7.7354685995
 Se        -2.0701895163       -1.9664247870       -6.4603921654
 Se        -0.0447055294       -3.1599545867       -2.8087914653
 Se         2.2323227427       -4.2314770759        0.7809443292
 Se         4.8362481760       -4.9531207977        4.0967244174
 Se        -0.7551477465       -6.2848956790       -5.8413968250
 Se         1.9250163791       -7.4791022012       -2.6076527046
 Se         4.2593574623       -8.3792557894        0.7363759988
 Se         0.0356302272        7.3686419987       -0.4913564212
 Se         2.3809417769        6.5252164765        3.1425193794
 Se         0.0437340512        4.4288397372       -3.5940202939
 Se         2.5164015651        3.6274368995       -0.0568816182
 Se         4.7727295608        2.4661679576        3.1253201042
 Se         0.0455174858        1.9300138814       -6.9705449506
 Se         2.2758529876        0.7648577442       -3.6570781034
 Se         4.3766763363       -0.2853643638       -0.0178360140
 Se         6.9677316036       -1.1294376973        3.5582212984
 Se         2.2370391511       -2.2682223885       -6.6837831229
 Se         4.3737655982       -3.1974960494       -3.2156804170
 Se         6.4331568621       -4.1116960725        0.4129340483
 Se         4.8516209703        7.5524261263       -0.7459507491
 Se         4.8775106758        4.5490014712       -4.0122755519
 Se         7.0856435960        3.5934947775       -0.6429056587
 Se         4.7817649799        1.5264580666       -7.5555502708
 Se         6.9186195584        0.6112234787       -3.7073750592
 Se         9.1069111725       -0.0626776816       -0.0923643016
  C         6.9966804262       -6.9498513594       -2.8612690269
  H         7.7649322095       -7.1224747738       -3.6684216540
  O         5.8440897947       -6.4672682242       -3.1400935535
  O         7.2887042375       -7.2742228451       -1.6937580229
  C         3.3950607517       -6.2673124032       -6.9491871350
  H         4.3444066225       -6.8936096686       -7.0753272229
  O         3.0188518113       -5.7909355607       -5.7821164377
  O         2.6177663780       -6.1689691282       -7.9240282735
  C         6.3106281645       -2.9078468543       -7.4910683000
  H         7.1299137504       -3.7048862282       -7.4466889051
  O         6.0085392233       -2.3182265035       -6.3475349547
  O         5.9394209581       -2.4742948943       -8.6125044438
  C         8.9774573888       -3.3708784313       -3.4296532577
  H         9.9250180562       -3.8774829974       -3.1826003730
  O         8.5683442646       -3.4149242967       -4.6046411393
  O         8.2717792071       -2.6967176446       -2.5201279396
  C         9.7980831921       -4.6252042560        2.1810014812
  H        10.6408655401       -5.3318691344        2.3887999993
  O         9.7472023558       -4.1805722024        0.9926435014
  O         9.0287413919       -4.5681845914        3.1870690324
  C        -2.8217345383       -8.8884471898        5.3598596727
  H        -2.4154187803       -9.9024293192        5.4343946394
  O        -1.9847718576       -7.9306809348        5.0423640622
  O        -4.0904635566       -8.7274985267        5.4044580606
  C         2.9969242313       -8.6916320832        5.2874251521
  H         2.6967725338       -9.0398269484        6.2934215078
  O         1.9994151620       -8.3579338319        4.5594616961
  O         4.2233532028       -8.6007593441        4.9157626517
  C         2.8793091562       -5.7053263506        8.2324352556
  H         2.3955873073       -6.3773024893        8.9303283437
  O         2.2190737598       -4.8088924544        7.6164093243
  O         4.1498242071       -5.9035533509        8.1536786815
  C        -2.5347154762       -5.9173467695        8.5220178576
  H        -2.0052498086       -6.7390725628        9.0096019785
  O        -1.9213773202       -5.2584246323        7.5983595949
  O        -3.6522427567       -5.5084841378        8.8928332490
  C        -6.8630699044        2.3027044768        7.3892195441
  H        -7.2086193538        3.3071349018        7.3885257928
  O        -5.6213850196        2.1591369040        7.5337613571
  O        -7.6696117670        1.3703146321        7.1999632064
  C        -4.1169934386        6.2828100654        7.2282005672
  H        -5.2418933127        6.2896177269        7.3832000201
  O        -3.5267583923        5.2290810571        6.7738765795
  O        -3.5911345081        7.4673603112        7.3180914670
  C        -6.2567475292        7.1462516062        4.0780892913
  H        -7.2111390447        7.1649409639        4.6689854642
  O        -5.8090778653        6.0479359517        3.6279249734
  O        -5.6128859645        8.2207941299        3.8488252964
  C        -9.2742312180        2.9617630598        4.4604738864
  H        -9.7855372140        3.8838940690        4.7760086716
  O        -8.0588732115        3.0119065158        4.1193081963
  O       -10.0811946334        1.9793573896        4.3922473455
  C        -9.6032872822       -3.5282244950        4.2551715069
  H       -10.5971720209       -3.6001750875        4.7566807035
  O        -9.3833463360       -2.7227951561        3.2942780527
  O        -8.6787829230       -4.3017878329        4.7630636695
  C        -5.4081381067       -6.0792414626       -6.1562025912
  H        -6.0546960796       -6.5859836395       -6.8890942905
  O        -5.3111099914       -6.5041397276       -4.9653146376
  O        -4.7985187786       -5.0927770542       -6.6853487793
  C        -7.4874986456       -7.2705854217       -1.8347920844
  H        -7.8388434959       -7.7173330376       -2.7530342297
  O        -6.3887914932       -6.5550258623       -1.8843631919
  O        -8.0717609353       -7.4409658364       -0.7458795549
  C        -9.2562894922       -3.4269938489       -2.1219794801
  H        -9.5270787848       -4.0663584857       -2.9594189931
  O        -8.1698678116       -2.7554303894       -2.2727129248
  O        -9.8242786225       -3.4940076088       -1.0092518048
  C        -6.7207145591       -1.5101370371       -7.0046088509
  H        -7.7450574417       -1.9674181007       -7.1698505571
  O        -6.3198716894       -1.2781274389       -5.7991179912
  O        -6.0634236471       -1.2635075391       -8.0155851812
  C        -1.9629173785        5.6954923848       -7.4853264264
  H        -1.7770888886        6.7764005651       -7.4923242406
  O        -2.4611994452        5.1867830354       -6.4087840493
  O        -1.7563680795        5.0405567310       -8.5284351831
  C        -1.7169029432        9.0075201160       -3.7839129244
  H        -1.3493405476        9.2660238074       -4.8465614694
  O        -1.7700288351        7.7195864115       -3.5246614192
  O        -1.9637418076        9.8896446597       -2.9409021360
  C         2.5062488153        8.6538972337       -4.1272904152
  H         2.7131102182        9.0638249498       -5.0476060874
  O         2.0944599393        7.4533340805       -4.0307047895
  O         2.6627655470        9.4112172241       -3.1553160634
  C         1.7411704667        5.3672441535       -8.1968763568
  H         1.4358383610        6.4416008070       -8.3632925476
  O         2.2781479423        5.0766667581       -7.0408846410
  O         1.5312122000        4.4834259156       -9.0176405099
  C         9.4769016618        2.6096298055        3.8999943980
  H         9.6131090334        3.4671477718        4.5843902861
  O         8.5280827596        2.7173758542        3.0492446870
  O        10.1886087708        1.5402001637        4.0331688497
  C         6.6326673061        7.0383194321        3.3281968930
  H         7.5082674956        7.1289998248        4.0070788575
  O         6.4945351222        6.1604832173        2.4465892080
  O         5.7955605393        7.9030474957        3.5813690710
  C         4.7447631387        5.8524894489        6.9354127748
  H         5.7085862008        5.7040540943        7.4370666698
  O         4.3286380796        4.9885735223        6.0815481263
  O         4.1458007172        6.9224492150        7.1372582777
  C         7.5603411790        1.7452802491        7.1878995100
  H         8.1158840311        2.6116602203        7.6593692779
  O         6.7459283233        2.0302565905        6.2244839182
  O         7.8435548989        0.5821893201        7.5895859717
     227
 i =        2, time =        2.000, E =        -7.4993180124
 Cd        -8.6169839239        0.4782721408        3.4767936904
 Cd        -5.8708130565       -0.2576754915        7.1136171229
 Cd        -8.4088490017       -2.1551998874        0.3836581257
 Cd        -6.8896705417       -3.2939008293        3.9621602369