     227
 i =        0, time =        0.000, E =        48.2733068484
 Cd        -8.6216924880        0.4810107428        3.4775887729
 Cd        -5.8723589632       -0.2566559957        7.1151373767
 Cd        -8.4076147924       -2.1531404527        0.3867588804
 Cd        -6.8957642261       -3.2896665849        3.9600318291
 Cd        -3.6930098048       -3.6992689615        7.3819491709
 Cd        -6.4429261463       -6.2347087238        0.4622469067
 Cd        -4.3123952394       -6.8285875372        3.9039095072
 Cd        -6.1141073353        3.8626235599        2.9066844924
 Cd        -3.6048790416        2.8797284733        6.5917986711
 Cd        -6.7531255596        1.1841266196       -0.3182182747
 Cd        -4.0437606329        0.0729837467        3.0511954168
 Cd        -1.7753257667       -0.3121054857        6.8316599018
 Cd        -6.3661028473       -1.4630135273       -3.4383357626
 Cd        -4.3602814436       -3.1214810613       -0.1759283953
 Cd        -2.2424276819       -3.6242998489        3.6335413818
 Cd         0.1757294635       -3.9625201566        7.0364714760
 Cd        -4.2692200317       -5.9860442556       -3.0005266361
 Cd        -2.2482225396       -6.7972628816        0.6786391664
 Cd         0.0669003827       -7.3030327295        3.8545421700
 Cd        -4.0792754193        7.4105475565        2.4175118797
 Cd        -1.6116442377        6.4880648240        6.2478272306
 Cd        -4.3308002626        4.8127262164       -0.6762739309
 Cd        -1.8326132452        3.6694977750        3.1598212265
 Cd         0.4939817277        3.1637060931        6.7202662426
 Cd        -4.5980154021        1.9988297698       -4.0880170010
 Cd        -2.1651194586        1.0165564496       -0.4536921834
 Cd         0.1376109507       -0.0659106884        3.1336818174
 Cd         2.6419074521       -0.6636939286        6.8958319365
 Cd        -4.1515129292       -0.5348426091       -6.9620217917
 Cd        -2.2012490343       -1.8491984656       -3.4894107829
 Cd         0.0359311218       -2.8494155653       -0.0264680683
 Cd         2.4407298775       -3.8224684908        3.5289587884
 Cd         4.5907434619       -4.2169180472        6.5928471603
 Cd        -2.6321953796       -4.5685798778       -6.0773989300
 Cd        -0.3638438279       -6.1221236347       -3.0620735359
 Cd         1.9882729153       -6.8506852632       -0.0376753302
 Cd         4.3604701588       -7.5063202656        3.0981086138
 Cd        -2.4313710890        8.2839908015       -1.2010761441
 Cd         0.1210964618        6.7915494583        2.0748938605
 Cd         2.2602783261        6.3879934074        5.9824457591
 Cd        -2.2743307721        5.5403016700       -4.1096429978
 Cd         0.1552258413        4.6164378819       -0.9814446932
 Cd         2.6173372932        3.7540356816        2.4616712460
 Cd         4.3934694910        2.5024270436        5.6448470259
 Cd        -2.3839877703        3.0961459608       -7.5397423510
 Cd        -0.1308699873        1.7716472388       -4.3458913396
 Cd         2.1522040622        0.8595996928       -0.9600505658
 Cd         4.3027041934       -0.4425155449        2.5248589789
 Cd         6.4943132815       -0.6514444341        6.0110723312
 Cd         0.4032906214       -0.5920449882       -7.0625722312
 Cd         2.1504065746       -1.8410095193       -3.9631978812
 Cd         4.1282053355       -2.9764966895       -0.5499119195
 Cd         6.9189885741       -3.8001688729        2.8840486736
 Cd         1.0693858855       -4.7693596381       -6.7909688629
 Cd         3.6529341800       -5.7620820022       -3.6150795142
 Cd         5.7341856059       -6.5625995016       -0.3323817960
 Cd         2.4532379782        8.1225833618       -1.1556872380
 Cd         4.4025673150        7.2904811152        1.7928276254
 Cd         2.3800547108        5.2453457502       -4.8107637235
 Cd         4.8184663347        4.7191125514       -1.4277792117
 Cd         6.7589411702        3.8390778732        2.0295448973
 Cd         2.6210634084        2.7844913241       -7.7035228004
 Cd         4.8495943395        1.7843685348       -4.5225056138
 Cd         6.7261500983        1.0662237140       -0.9642295531
 Cd         8.8881450478        0.4141445330        2.4369093904
 Cd         4.3615782352       -0.9213178924       -7.7328888960
 Cd         6.7438649008       -1.9767569930       -4.2031112584
 Cd         8.5272445020       -2.6218905711       -0.2551455218
 Se        -9.0557725106        0.2424574140        0.9180313808
 Se        -6.3745872764       -0.6570220647        4.4225742627
 Se        -3.9358548519       -1.3506397678        8.2925868769
 Se        -6.5830028390       -3.7408669090        1.3890860046
 Se        -4.5802302415       -4.2716541219        4.8585926421
 Se        -4.6110671623       -7.7792240778        1.5343213278
 Se        -6.6407812351        3.9866809498        0.4586064126
 Se        -4.0705866514        2.6241591830        3.9150270775
 Se        -1.6315747320        2.0143859544        7.9219454430
 Se        -6.7106235468        0.9827493806       -3.1628202938
 Se        -4.4077684895       -0.2106461950        0.3970531668
 Se        -2.0534879979       -1.1190641497        4.2604482105
 Se         0.4069246601       -1.5676855049        8.0617057342
 Se        -4.4126107232       -3.1307459794       -2.8028288282
 Se        -2.2371864822       -4.0884616040        0.9473336128
 Se         0.1541797359       -4.8148952714        4.4843326207
 Se        -2.4147106009       -7.4199706225       -2.0529393442
 Se        -0.0662571417       -7.8800811154        1.3078284855
 Se        -4.5519687636        7.5920037884       -0.0122560791
 Se        -1.8482840651        6.3647212661        3.5390459072
 Se         0.4006735392        5.8241498358        7.5878867146
 Se        -4.4655945585        4.5529209660       -3.3484418515
 Se        -2.0798083538        3.7153034916        0.3451575142
 Se         0.4973892782        2.6967113851        3.7286137790
 Se         2.7724753484        1.9958260876        7.6298945277
 Se        -4.6126224962        2.0736182894       -6.9031574659
 Se        -2.2770211290        0.8531533747       -3.1284312065
 Se         0.0138865169       -0.1636477002        0.3858468104
 Se         2.3115473387       -1.3198431962        4.0017354986
 Se         4.8624545925       -1.8855864388        7.7371297607
 Se        -2.0700877949       -1.9675257511       -6.4603372509
 Se        -0.0447057629       -3.1582708631       -2.8090856920
 Se         2.2343306950       -4.2299664240        0.7817840723
 Se         4.8342987615       -4.9516929708        4.0974643468
 Se        -0.7556003326       -6.2829108386       -5.8406699955
 Se         1.9243057511       -7.4784768035       -2.6074198353
 Se         4.2543989663       -8.3809591814        0.7363809319
 Se         0.0386925703        7.3677075300       -0.4939635450
 Se         2.3791568525        6.5289221229        3.1400383851
 Se         0.0465974103        4.4270318221       -3.5936563407
 Se         2.5167269427        3.6273521599       -0.0581806204
 Se         4.7705604635        2.4670139639        3.1233546104
 Se         0.0435933033        1.9323944164       -6.9695738842
 Se         2.2733127965        0.7623703678       -3.6584263160
 Se         4.3816175435       -0.2841549253       -0.0177063702
 Se         6.9670500347       -1.1290204494        3.5565582379
 Se         2.2410869402       -2.2702007814       -6.6798205275
 Se         4.3723294721       -3.1971869108       -3.2130677403
 Se         6.4331938555       -4.1098532443        0.4136420186
 Se         4.8503033307        7.5509093293       -0.7463548497
 Se         4.8776288797        4.5477652435       -4.0091414448
 Se         7.0830986217        3.5950723552       -0.6434567968
 Se         4.7810064642        1.5273410534       -7.5566303287
 Se         6.9188050062        0.6130038217       -3.7081238627
 Se         9.1066871843       -0.0609359671       -0.0919647969
  C         6.9955771113       -6.9586634775       -2.8583426301
  H         7.7780160969       -7.1271873265       -3.6573399650
  O         5.8389952916       -6.4652991204       -3.1445809228
  O         7.2920676004       -7.2683568805       -1.6893132711
  C         3.3939431960       -6.2668607509       -6.9513074648
  H         4.3245440932       -6.8689211647       -7.0591687882
  O         3.0202466073       -5.7860511295       -5.7843136273
  O         2.6220129789       -6.1746538788       -7.9242101403
  C         6.3116555909       -2.9071154185       -7.4921130606
  H         7.0978863851       -3.7212906458       -7.4285512081
  O         6.0096715894       -2.3219711192       -6.3505932827
  O         5.9403243477       -2.4750431756       -8.6116316973
  C         8.9837561036       -3.3697375837       -3.4349055328
  H         9.9249943929       -3.8864043165       -3.1840078659
  O         8.5659407989       -3.4209184445       -4.6048832464
  O         8.2714489672       -2.6971151254       -2.5207012617
  C         9.7902109758       -4.6282247391        2.1768529346
  H        10.6284324694       -5.3337138149        2.3552924638
  O         9.7484501532       -4.1824896055        0.9942458601
  O         9.0219926648       -4.5705851174        3.1873629795
  C        -2.8252708508       -8.8894178348        5.3653894160
  H        -2.3915771747       -9.8892286280        5.4446685031
  O        -1.9808601030       -7.9304545651        5.0436955975
  O        -4.0908415257       -8.7280019527        5.4030844137
  C         3.0047406823       -8.6887063298        5.2919739424
  H         2.6853413808       -9.0312323512        6.2714246943
  O         1.9985977812       -8.3553887881        4.5599054594
  O         4.2197147413       -8.6069092298        4.9235206312
  C         2.8732291572       -5.7090624943        8.2322507888
  H         2.4095730423       -6.3582442170        8.9295273658
  O         2.2236878889       -4.8031284854        7.6183804854
  O         4.1525405945       -5.8988692439        8.1468427445
  C        -2.5324052264       -5.9090323801        8.5168983878
  H        -2.0058427467       -6.7599986745        9.0204193621
  O        -1.9189018681       -5.2527647032        7.5983339134
  O        -3.6521974131       -5.4981014961        8.8936623702
  C        -6.8661340661        2.3082426882        7.3884767521
  H        -7.2433530482        3.2983326111        7.3747512577
  O        -5.6189307919        2.1553364867        7.5292857639
  O        -7.6694328727        1.3672322100        7.2032576312
  C        -4.1128935570        6.2776012356        7.2258109093
  H        -5.2184092536        6.2949225170        7.4003980339
  O        -3.5215502414        5.2331222329        6.7794929280
  O        -3.5956064510        7.4679880815        7.3184340370
  C        -6.2584500423        7.1467273309        4.0778865765
  H        -7.2018864753        7.1620259062        4.6862261037
  O        -5.8042352338        6.0508881806        3.6277903665
  O        -5.6141473350        8.2227071687        3.8530055117
  C        -9.2670155991        2.9624473135        4.4549609073
  H        -9.7760873251        3.8307467380        4.7753730710
  O        -8.0580447847        3.0137717908        4.1153681461
  O       -10.0869615960        1.9755230626        4.3964141791
  C        -9.5997958208       -3.5202239981        4.2555074891
  H       -10.6284324694       -3.6062117458        4.7363993397
  O        -9.3836198173       -2.7271085544        3.2939504316
  O        -8.6749593009       -4.3055307223        4.7674147240
  C        -5.4063829718       -6.0836320759       -6.1576393485
  H        -6.0390997038       -6.5934387315       -6.8768176703
  O        -5.3157147411       -6.5042627408       -4.9638375967
  O        -4.7997118332       -5.0931497246       -6.6842330004
  C        -7.4812021438       -7.2683192216       -1.8337008205
  H        -7.8430239833       -7.7214409635       -2.7403108931
  O        -6.3847231004       -6.5596142310       -1.8855223803
  O        -8.0870004405       -7.4369608581       -0.7449951352
  C        -9.2637717352       -3.4248031045       -2.1287629167
  H        -9.5435102925       -4.0726156799       -2.9624854104
  O        -8.1685743898       -2.7562864935       -2.2769679175
  O        -9.8293124780       -3.4993302663       -1.0042472880
  C        -6.7198117275       -1.5155721631       -7.0057360974
  H        -7.7266400310       -1.9701098143       -7.1795729881
  O        -6.3208037730       -1.2812141421       -5.7891801227
  O        -6.0546670581       -1.2647410752       -8.0219575549
  C        -1.9610306020        5.6962737072       -7.4797868569
  H        -1.8068881661        6.7616764611       -7.4798700689
  O        -2.4613788677        5.1953402046       -6.4147373301
  O        -1.7592038190        5.0404242691       -8.5376948407
  C        -1.7153677193        9.0065729983       -3.7807068554
  H        -1.3518565997        9.2891789052       -4.8285272378
  O        -1.7735635219        7.7204009534       -3.5311974415
  O        -1.9589811591        9.8892286280       -2.9296575010
  C         2.5176986766        8.6527359013       -4.1276241396
  H         2.7356319561        9.0838176512       -5.0545617483
  O         2.0941304229        7.4607563111       -4.0382054964
  O         2.6632020791        9.4136986823       -3.1567247192
  C         1.7405814703        5.3615037054       -8.2026998584
  H         1.4592813282        6.4433815072       -8.3446733349
  O         2.2712544771        5.0744229803       -7.0359036782
  O         1.5374971892        4.4786315137       -9.0204193621
  C         9.4791869119        2.6134878200        3.9079418032
  H         9.6264681644        3.4611325178        4.5867541287
  O         8.5294682966        2.7206869475        3.0468687327
  O        10.1884170796        1.5361363159        4.0354546634
  C         6.6320899766        7.0427804887        3.3240585285
  H         7.5183451153        7.1103565644        4.0025867163
  O         6.4921259472        6.1579139584        2.4473334656
  O         5.8014508194        7.8970951585        3.5804466065
  C         4.7468288793        5.8510846562        6.9391041765
  H         5.6837062732        5.7110173508        7.4566454645
  O         4.3315486404        4.9881730889        6.0840680113
  O         4.1390624477        6.9214380767        7.1338855679
  C         7.5642974957        1.7429307679        7.1823006621
  H         8.1116275708        2.6102062210        7.6466333920
  O         6.7423080014        2.0330978891        6.2208765696
  O         7.8434776238        0.5800715711        7.5931108165
     227
 i =        1, time =        1.000, E =        47.5861839212
 Cd        -8.6191674478        0.4792752019        3.4777491131
 Cd        -5.8728448030       -0.2568864981        7.1138546091
 Cd        -8.4082906289       -2.1548929877        0.3847108049
 Cd        -6.8922182128       -3.2911198391        3.9612036487
 Cd        -3.6902919646       -3.7011162028        7.3817183016
 Cd        -6.4423474867       -6.2355193703        0.4644525302
 Cd        -4.3121784818       -6.8292291903        3.9062262463
 Cd        -6.1168328628        3.8608311782        2.9068016544
 Cd        -3.6074166975        2.8815464269        6.5896434241
 Cd        -6.7533523515        1.1874082624       -0.3192812259
 Cd        -4.0448735523        0.0755026680        3.0498924567
 Cd        -1.7742097546       -0.3134270722        6.8331491312
 Cd        -6.3663613168       -1.4642572223       -3.4401452439
 Cd        -4.3621523472       -3.1213056915       -0.1743169145
 Cd        -2.2424698340       -3.6225442934        3.6334742382
 Cd         0.1778052591       -3.9619765335        7.0369300329
 Cd        -4.2700184139       -5.9870251814       -2.9988816116
 Cd        -2.2498904740       -6.7959801289        0.6787413676
 Cd         0.0673277852       -7.3038137888        3.8546154484
 Cd        -4.0792722448        7.4117352792        2.4195477680
 Cd        -1.6116267783        6.4888824686        6.2500919052
 Cd        -4.3324252236        4.8131406018       -0.6767989513
 Cd        -1.8303643372        3.6700426423        3.1584900417
 Cd         0.4898437148        3.1635905845        6.7198599520
 Cd        -4.5983436014        2.0002395189       -4.0898690700
 Cd        -2.1632412333        1.0187410037       -0.4516485222
 Cd         0.1382993630       -0.0676407557        3.1342286540
 Cd         2.6424084658       -0.6633310755        6.8951757696
 Cd        -4.1541342399       -0.5349385421       -6.9610820653
 Cd        -2.2033377639       -1.8485966569       -3.4905645951
 Cd         0.0357007228       -2.8475344137       -0.0251502368
 Cd         2.4399855037       -3.8226165691        3.5301350253
 Cd         4.5938751456       -4.2153775237        6.5947348464
 Cd        -2.6323447339       -4.5693898407       -6.0783190711
 Cd        -0.3606786739       -6.1201516439       -3.0632801297
 Cd         1.9868535468       -6.8520483253       -0.0371870178
 Cd         4.3580885258       -7.5032973108        3.0967948364
 Cd        -2.4311557478        8.2872841615       -1.2008050577
 Cd         0.1211309605        6.7915734642        2.0734457209
 Cd         2.2583698653        6.3883094171        5.9809538245
 Cd        -2.2733920650        5.5411551915       -4.1124636447
 Cd         0.1544045327        4.6149335006       -0.9817140171
 Cd         2.6161272725        3.7542250827        2.4622943421
 Cd         4.3941075631        2.5016090205        5.6453974012
 Cd        -2.3855589936        3.0931801289       -7.5403344923
 Cd        -0.1311774931        1.7710031234       -4.3471650777
 Cd         2.1528727093        0.8605131286       -0.9631535804
 Cd         4.3040938000       -0.4400850114        2.5258978411
 Cd         6.4919546417       -0.6513371840        6.0113857983
 Cd         0.4031562554       -0.5929865735       -7.0626302850
 Cd         2.1509335316       -1.8416220247       -3.9632524992
 Cd         4.1301225656       -2.9777044311       -0.5482891515
 Cd         6.9197358097       -3.7964766638        2.8867399290
 Cd         1.0697401358       -4.7680416939       -6.7913138503
 Cd         3.6507986276       -5.7623257838       -3.6171784616
 Cd         5.7320800880       -6.5631597021       -0.3323716805
 Cd         2.4538978348        8.1229452416       -1.1568185914
 Cd         4.4057960711        7.2902118307        1.7945866277
 Cd         2.3803802561        5.2450486025       -4.8079241956
 Cd         4.8182135923        4.7188845732       -1.4274059274
 Cd         6.7583712168        3.8405689489        2.0310168688
 Cd         2.6204914524        2.7833397270       -7.7034922681
 Cd         4.8477030518        1.7853840343       -4.5239187222
 Cd         6.7272303654        1.0638683211       -0.9630743290
 Cd         8.8868515168        0.4154344612        2.4353298337
 Cd         4.3613754641       -0.9242604897       -7.7313053215
 Cd         6.7423978387       -1.9757671419       -4.2009499688
 Cd         8.5294414548       -2.6208079633       -0.2524063102
 Se        -9.0570172921        0.2452161053        0.9171261328
 Se        -6.3731469542       -0.6561468697        4.4187951857
 Se        -3.9335333046       -1.3483136417        8.3001054112
 Se        -6.5828810025       -3.7432143651        1.3871639284
 Se        -4.5791601702       -4.2762539947        4.8610082290
 Se        -4.6127627161       -7.7795603251        1.5321049813
 Se        -6.6446293717        3.9856858361        0.4550323506
 Se        -4.0724861867        2.6205593539        3.9155007192
 Se        -1.6320460244        2.0131226145        7.9285519659
 Se        -6.7156854575        0.9853621373       -3.1643024578
 Se        -4.4079079239       -0.2116819637        0.3944844104
 Se        -2.0523856590       -1.1145710987        4.2602624002
 Se         0.4057245795       -1.5658391613        8.0672765216
 Se        -4.4166422644       -3.1316255986       -2.8059271773
 Se        -2.2363663306       -4.0918226328        0.9474342135
 Se         0.1523792124       -4.8122311875        4.4864276942
 Se        -2.4162503567       -7.4237311676       -2.0534472422
 Se        -0.0653285077       -7.8823188874        1.3097503604
 Se        -4.5555695459        7.5955530467       -0.0149661443
 Se        -1.8490994826        6.3640742884        3.5422580087
 Se         0.4041290108        5.8257183113        7.5902307928
 Se        -4.4690384574        4.5548248954       -3.3490530462
 Se        -2.0808572335        3.7149432455        0.3431832548
 Se         0.4991023641        2.6960160718        3.7301382614
 Se         2.7719732584        1.9961007464        7.6286367173
 Se        -4.6162560169        2.0752711312       -6.9054341262
 Se        -2.2795606813        0.8533627557       -3.1264470494
 Se         0.0153548358       -0.1634618861        0.3858053398
 Se         2.3131441617       -1.3172004078        4.0009064725
 Se         4.8640834121       -1.8840366902        7.7379831103
 Se        -2.0687886455       -1.9667965966       -6.4609513576
 Se        -0.0435342592       -3.1611720599       -2.8087244953
 Se         2.2318668274       -4.2321118850        0.7812474617
 Se         4.8366564232       -4.9545136744        4.0968788438
 Se        -0.7553885126       -6.2885165690       -5.8415291251
 Se         1.9251021599       -7.4814845843       -2.6087713198
 Se         4.2589023672       -8.3827678655        0.7348947459
 Se         0.0349590130        7.3695691461       -0.4919443999
 Se         2.3820712504        6.5251657742        3.1452032221
 Se         0.0445983523        4.4288881243       -3.5950194742
 Se         2.5167232039        3.6272731292       -0.0598279650
 Se         4.7741198353        2.4648686511        3.1245870279
 Se         0.0452035126        1.9319149090       -6.9725661901
 Se         2.2769513625        0.7659602385       -3.6573577592
 Se         4.3777234270       -0.2852486556       -0.0197577308
 Se         6.9681826051       -1.1298988026        3.5569051444
 Se         2.2388384184       -2.2702975093       -6.6846338373
 Se         4.3748290851       -3.1974303553       -3.2162735436
 Se         6.4327485667       -4.1122301908        0.4108241683
 Se         4.8555943238        7.5526748029       -0.7473223520
 Se         4.8785094874        4.5496130132       -4.0146587653
 Se         7.0879801379        3.5955027845       -0.6428946761
 Se         4.7854827140        1.5284516640       -7.5557112242
 Se         6.9217236150        0.6110929640       -3.7073455607
 Se         9.1089836982       -0.0618990905       -0.0939981163
  C         6.9966748553       -6.9498209217       -2.8612704373
  H         7.7649322095       -7.1224747738       -3.6684216540
  O         5.8503746130       -6.4702941582       -3.1394699925
  O         7.2997909419       -7.2793912614       -1.7035728301
  C         3.3950743033       -6.2672957413       -6.9491706623
  H         4.3444066225       -6.8936096686       -7.0753272229
  O         3.0201067478       -5.7933502771       -5.7904029790
  O         2.6211617336       -6.1719208656       -7.9265074952
  C         6.3106275755       -2.9078570666       -7.4910341109
  H         7.1299137504       -3.7048862282       -7.4466889051
  O         6.0083040332       -2.3203685319       -6.3549203238
  O         5.9426780001       -2.4774478130       -8.6143097423
  C         8.9774329602       -3.3708845869       -3.4296412878
  H         9.9250180562       -3.8774829974       -3.1826003730
  O         8.5725489806       -3.4182582769       -4.6055641449
  O         8.2745339634       -2.6994285876       -2.5262133517
  C         9.7980600971       -4.6251951932        2.1809923200
  H        10.6408655401       -5.3318691344        2.3887999993
  O         9.7535625248       -4.1846695339        0.9963908845
  O         9.0382445911       -4.5717233444        3.1887220274
  C        -2.8217253291       -8.8884230218        5.3598598315
  H        -2.4154187803       -9.9024293192        5.4343946394
  O        -1.9874376712       -7.9321897430        5.0443910821
  O        -4.0900730252       -8.7303921412        5.4069542808
  C         2.9969178545       -8.6916065917        5.2874291003
  H         2.6967725338       -9.0398269484        6.2934215078
  O         2.0054845738       -8.3616224701        4.5622502465
  O         4.2218994393       -8.6117756971        4.9333172392
  C         2.8792962953       -5.7053280225        8.2324155314
  H         2.3955873073       -6.3773024893        8.9303283437
  O         2.2257872865       -4.8130856511        7.6194366390
  O         4.1485605290       -5.9083291379        8.1579975208
  C        -2.5347095302       -5.9173496751        8.5219884648
  H        -2.0052498086       -6.7390725628        9.0096019785
  O        -1.9194936409       -5.2631548603        7.6001355109
  O        -3.6521022640       -5.5129767550        8.8965534717
  C        -6.8630648784        2.3027084266        7.3891860197
  H        -7.2086193538        3.3071349018        7.3885257928
  O        -5.6269072986        2.1605804742        7.5370180373
  O        -7.6727192355        1.3733728903        7.2008528584
  C        -4.1170013912        6.2827949784        7.2281772983
  H        -5.2418933127        6.2896177269        7.3832000201
  O        -3.5319364514        5.2316679899        6.7762138384
  O        -3.5937273495        7.4686241590        7.3194812164
  C        -6.2567360682        7.1462308947        4.0780979083
  H        -7.2111390447        7.1649409639        4.6689854642
  O        -5.8103219338        6.0534682236        3.6316289844
  O        -5.6198315177        8.2244491711        3.8554148843
  C        -9.2742050962        2.9617483500        4.4604818580
  H        -9.7855372140        3.8838940690        4.7760086716
  O        -8.0618191079        3.0119001366        4.1215242955
  O       -10.0865332663        1.9848611236        4.3957988690
  C        -9.6032694063       -3.5282143872        4.2551608825
  H       -10.5971720209       -3.6001750875        4.7566807035
  O        -9.3863265376       -2.7228751003        3.2951978526
  O        -8.6901002858       -4.3081246391        4.7682578186
  C        -5.4081384654       -6.0792240895       -6.1561840390
  H        -6.0546960796       -6.5859836395       -6.8890942905
  O        -5.3150606449       -6.5061256581       -4.9726287215
  O        -4.8053708713       -5.0945092129       -6.6872834896
  C        -7.4874874117       -7.2705575152       -1.8347968089
  H        -7.8388434959       -7.7173330376       -2.7530342297
  O        -6.3917729793       -6.5565364836       -1.8881734834
  O        -8.0754411933       -7.4435577866       -0.7485917846
  C        -9.2562639477       -3.4270034944       -2.1219712863
  H        -9.5270787848       -4.0663584857       -2.9594189931
  O        -8.1722597842       -2.7569364078       -2.2723299330
  O        -9.8269751618       -3.4964519474       -1.0119051510
  C        -6.7207042704       -1.5101536579       -7.0045904704
  H        -7.7450574417       -1.9674181007       -7.1698505571
  O        -6.3212638609       -1.2797204984       -5.8054104382
  O        -6.0700765631       -1.2664954435       -8.0193160081
  C        -1.9628984467        5.6954880433       -7.4853085986
  H        -1.7770888886        6.7764005651       -7.4923242406
  O        -2.4614645013        5.1908925995       -6.4135366793
  O        -1.7540801444        5.0484752195       -8.5324731100
  C        -1.7168842993        9.0074993745       -3.7839149439
  H        -1.3493405476        9.2660238074       -4.8465614694
  O        -1.7688142397        7.7266238713       -3.5267490416
  O        -1.9630389825        9.8925494694       -2.9440369823
  C         2.5062325439        8.6538792404       -4.1272907752
  H         2.7131102182        9.0638249498       -5.0476060874
  O         2.0941749676        7.4591937453       -4.0295620264
  O         2.6627638644        9.4140651114       -3.1596314911
  C         1.7411484732        5.3672417281       -8.1968591129
  H         1.4358383610        6.4416008070       -8.3632925476
  O         2.2771831345        5.0801670362       -7.0512044451
  O         1.5298961648        4.4873368876       -9.0206779660
  C         9.4768700613        2.6096261335        3.9000030604
  H         9.6131090334        3.4671477718        4.5843902861
  O         8.5332084065        2.7183103598        3.0533573177
  O        10.1919059352        1.5430659690        4.0371464222
  C         6.6326555937        7.0382954738        3.3282070719
  H         7.5082674956        7.1289998248        4.0070788575
  O         6.4968764299        6.1641404406        2.4488473525
  O         5.7997424800        7.9048113772        3.5858373879
  C         4.7447699065        5.8524788176        6.9353893637
  H         5.7085862008        5.7040540943        7.4370666698
  O         4.3312640909        4.9900697206        6.0823004292
  O         4.1538004655        6.9247127829        7.1418971558
  C         7.5603355692        1.7452814103        7.1878727924
  H         8.1158840311        2.6116602203        7.6593692779
  O         6.7494823687        2.0305487116        6.2260691968
  O         7.8460987459        0.5845011710        7.5921193193
     227
 i =        2, time =        2.000, E =        45.7576811199
 Cd        -8.6164013796        0.4769247890        3.4791050715
 Cd        -5.8759287065       -0.2564329184        7.1115227649
 Cd        -8.4091804195       -2.1581179468        0.3816200695
 Cd        -6.8879275438       -3.2913414774        3.9626773257