     227
 i =        0, time =        0.000, E =        -9.1081479895
 Cd        -8.6216924880        0.4810107428        3.4775887729
 Cd        -5.8723589632       -0.2566559957        7.1151373767
 Cd        -8.4076147924       -2.1531404527        0.3867588804
 Cd        -6.8957642261       -3.2896665849        3.9600318291
 Cd        -3.6930098048       -3.6992689615        7.3819491709
 Cd        -6.4429261463       -6.2347087238        0.4622469067
 Cd        -4.3123952394       -6.8285875372        3.9039095072
 Cd        -6.1141073353        3.8626235599        2.9066844924
 Cd        -3.6048790416        2.8797284733        6.5917986711
 Cd        -6.7531255596        1.1841266196       -0.3182182747
 Cd        -4.0437606329        0.0729837467        3.0511954168
 Cd        -1.7753257667       -0.3121054857        6.8316599018
 Cd        -6.3661028473       -1.4630135273       -3.4383357626
 Cd        -4.3602814436       -3.1214810613       -0.1759283953
 Cd        -2.2424276819       -3.6242998489        3.6335413818
 Cd         0.1757294635       -3.9625201566        7.0364714760
 Cd        -4.2692200317       -5.9860442556       -3.0005266361
 Cd        -2.2482225396       -6.7972628816        0.6786391664
 Cd         0.0669003827       -7.3030327295        3.8545421700
 Cd        -4.0792754193        7.4105475565        2.4175118797
 Cd        -1.6116442377        6.4880648240        6.2478272306
 Cd        -4.3308002626        4.8127262164       -0.6762739309
 Cd        -1.8326132452        3.6694977750        3.1598212265
 Cd         0.4939817277        3.1637060931        6.7202662426
 Cd        -4.5980154021        1.9988297698       -4.0880170010
 Cd        -2.1651194586        1.0165564496       -0.4536921834
 Cd         0.1376109507       -0.0659106884        3.1336818174
 Cd         2.6419074521       -0.6636939286        6.8958319365
 Cd        -4.1515129292       -0.5348426091       -6.9620217917
 Cd        -2.2012490343       -1.8491984656       -3.4894107829
 Cd         0.0359311218       -2.8494155653       -0.0264680683
 Cd         2.4407298775       -3.8224684908        3.5289587884
 Cd         4.5907434619       -4.2169180472        6.5928471603
 Cd        -2.6321953796       -4.5685798778       -6.0773989300
 Cd        -0.3638438279       -6.1221236347       -3.0620735359
 Cd         1.9882729153       -6.8506852632       -0.0376753302
 Cd         4.3604701588       -7.5063202656        3.0981086138
 Cd        -2.4313710890        8.2839908015       -1.2010761441
 Cd         0.1210964618        6.7915494583        2.0748938605
 Cd         2.2602783261        6.3879934074        5.9824457591
 Cd        -2.2743307721        5.5403016700       -4.1096429978
 Cd         0.1552258413        4.6164378819       -0.9814446932
 Cd         2.6173372932        3.7540356816        2.4616712460
 Cd         4.3934694910        2.5024270436        5.6448470259
 Cd        -2.3839877703        3.0961459608       -7.5397423510
 Cd        -0.1308699873        1.7716472388       -4.3458913396
 Cd         2.1522040622        0.8595996928       -0.9600505658
 Cd         4.3027041934       -0.4425155449        2.5248589789
 Cd         6.4943132815       -0.6514444341        6.0110723312
 Cd         0.4032906214       -0.5920449882       -7.0625722312
 Cd         2.1504065746       -1.8410095193       -3.9631978812
 Cd         4.1282053355       -2.9764966895       -0.5499119195
 Cd         6.9189885741       -3.8001688729        2.8840486736
 Cd         1.0693858855       -4.7693596381       -6.7909688629
 Cd         3.6529341800       -5.7620820022       -3.6150795142
 Cd         5.7341856059       -6.5625995016       -0.3323817960
 Cd         2.4532379782        8.1225833618       -1.1556872380
 Cd         4.4025673150        7.2904811152        1.7928276254
 Cd         2.3800547108        5.2453457502       -4.8107637235
 Cd         4.8184663347        4.7191125514       -1.4277792117
 Cd         6.7589411702        3.8390778732        2.0295448973
 Cd         2.6210634084        2.7844913241       -7.7035228004
 Cd         4.8495943395        1.7843685348       -4.5225056138
 Cd         6.7261500983        1.0662237140       -0.9642295531
 Cd         8.8881450478        0.4141445330        2.4369093904
 Cd         4.3615782352       -0.9213178924       -7.7328888960
 Cd         6.7438649008       -1.9767569930       -4.2031112584
 Cd         8.5272445020       -2.6218905711       -0.2551455218
 Se        -9.0557725106        0.2424574140        0.9180313808
 Se        -6.3745872764       -0.6570220647        4.4225742627
 Se        -3.9358548519       -1.3506397678        8.2925868769
 Se        -6.5830028390       -3.7408669090        1.3890860046
 Se        -4.5802302415       -4.2716541219        4.8585926421
 Se        -4.6110671623       -7.7792240778        1.5343213278
 Se        -6.6407812351        3.9866809498        0.4586064126
 Se        -4.0705866514        2.6241591830        3.9150270775
 Se        -1.6315747320        2.0143859544        7.9219454430
 Se        -6.7106235468        0.9827493806       -3.1628202938
 Se        -4.4077684895       -0.2106461950        0.3970531668
 Se        -2.0534879979       -1.1190641497        4.2604482105
 Se         0.4069246601       -1.5676855049        8.0617057342
 Se        -4.4126107232       -3.1307459794       -2.8028288282
 Se        -2.2371864822       -4.0884616040        0.9473336128
 Se         0.1541797359       -4.8148952714        4.4843326207
 Se        -2.4147106009       -7.4199706225       -2.0529393442
 Se        -0.0662571417       -7.8800811154        1.3078284855
 Se        -4.5519687636        7.5920037884       -0.0122560791
 Se        -1.8482840651        6.3647212661        3.5390459072
 Se         0.4006735392        5.8241498358        7.5878867146
 Se        -4.4655945585        4.5529209660       -3.3484418515
 Se        -2.0798083538        3.7153034916        0.3451575142
 Se         0.4973892782        2.6967113851        3.7286137790
 Se         2.7724753484        1.9958260876        7.6298945277
 Se        -4.6126224962        2.0736182894       -6.9031574659
 Se        -2.2770211290        0.8531533747       -3.1284312065
 Se         0.0138865169       -0.1636477002        0.3858468104
 Se         2.3115473387       -1.3198431962        4.0017354986
 Se         4.8624545925       -1.8855864388        7.7371297607
 Se        -2.0700877949       -1.9675257511       -6.4603372509
 Se        -0.0447057629       -3.1582708631       -2.8090856920
 Se         2.2343306950       -4.2299664240        0.7817840723
 Se         4.8342987615       -4.9516929708        4.0974643468
 Se        -0.7556003326       -6.2829108386       -5.8406699955
 Se         1.9243057511       -7.4784768035       -2.6074198353
 Se         4.2543989663       -8.3809591814        0.7363809319
 Se         0.0386925703        7.3677075300       -0.4939635450
 Se         2.3791568525        6.5289221229        3.1400383851
 Se         0.0465974103        4.4270318221       -3.5936563407
 Se         2.5167269427        3.6273521599       -0.0581806204
 Se         4.7705604635        2.4670139639        3.1233546104
 Se         0.0435933033        1.9323944164       -6.9695738842
 Se         2.2733127965        0.7623703678       -3.6584263160
 Se         4.3816175435       -0.2841549253       -0.0177063702
 Se         6.9670500347       -1.1290204494        3.5565582379
 Se         2.2410869402       -2.2702007814       -6.6798205275
 Se         4.3723294721       -3.1971869108       -3.2130677403
 Se         6.4331938555       -4.1098532443        0.4136420186
 Se         4.8503033307        7.5509093293       -0.7463548497
 Se         4.8776288797        4.5477652435       -4.0091414448
 Se         7.0830986217        3.5950723552       -0.6434567968
 Se         4.7810064642        1.5273410534       -7.5566303287
 Se         6.9188050062        0.6130038217       -3.7081238627
 Se         9.1066871843       -0.0609359671       -0.0919647969
  C         6.9955771113       -6.9586634775       -2.8583426301
  H         7.7780160969       -7.1271873265       -3.6573399650
  O         5.8389952916       -6.4652991204       -3.1445809228
  O         7.2920676004       -7.2683568805       -1.6893132711
  C         3.3939431960       -6.2668607509       -6.9513074648
  H         4.3245440932       -6.8689211647       -7.0591687882
  O         3.0202466073       -5.7860511295       -5.7843136273
  O         2.6220129789       -6.1746538788       -7.9242101403
  C         6.3116555909       -2.9071154185       -7.4921130606
  H         7.0978863851       -3.7212906458       -7.4285512081
  O         6.0096715894       -2.3219711192       -6.3505932827
  O         5.9403243477       -2.4750431756       -8.6116316973
  C         8.9837561036       -3.3697375837       -3.4349055328
  H         9.9249943929       -3.8864043165       -3.1840078659
  O         8.5659407989       -3.4209184445       -4.6048832464
  O         8.2714489672       -2.6971151254       -2.5207012617
  C         9.7902109758       -4.6282247391        2.1768529346
  H        10.6284324694       -5.3337138149        2.3552924638
  O         9.7484501532       -4.1824896055        0.9942458601
  O         9.0219926648       -4.5705851174        3.1873629795
  C        -2.8252708508       -8.8894178348        5.3653894160
  H        -2.3915771747       -9.8892286280        5.4446685031
  O        -1.9808601030       -7.9304545651        5.0436955975
  O        -4.0908415257       -8.7280019527        5.4030844137
  C         3.0047406823       -8.6887063298        5.2919739424
  H         2.6853413808       -9.0312323512        6.2714246943
  O         1.9985977812       -8.3553887881        4.5599054594
  O         4.2197147413       -8.6069092298        4.9235206312
  C         2.8732291572       -5.7090624943        8.2322507888
  H         2.4095730423       -6.3582442170        8.9295273658
  O         2.2236878889       -4.8031284854        7.6183804854
  O         4.1525405945       -5.8988692439        8.1468427445
  C        -2.5324052264       -5.9090323801        8.5168983878
  H        -2.0058427467       -6.7599986745        9.0204193621
  O        -1.9189018681       -5.2527647032        7.5983339134
  O        -3.6521974131       -5.4981014961        8.8936623702
  C        -6.8661340661        2.3082426882        7.3884767521
  H        -7.2433530482        3.2983326111        7.3747512577
  O        -5.6189307919        2.1553364867        7.5292857639
  O        -7.6694328727        1.3672322100        7.2032576312
  C        -4.1128935570        6.2776012356        7.2258109093
  H        -5.2184092536        6.2949225170        7.4003980339
  O        -3.5215502414        5.2331222329        6.7794929280
  O        -3.5956064510        7.4679880815        7.3184340370
  C        -6.2584500423        7.1467273309        4.0778865765
  H        -7.2018864753        7.1620259062        4.6862261037
  O        -5.8042352338        6.0508881806        3.6277903665
  O        -5.6141473350        8.2227071687        3.8530055117
  C        -9.2670155991        2.9624473135        4.4549609073
  H        -9.7760873251        3.8307467380        4.7753730710
  O        -8.0580447847        3.0137717908        4.1153681461
  O       -10.0869615960        1.9755230626        4.3964141791
  C        -9.5997958208       -3.5202239981        4.2555074891
  H       -10.6284324694       -3.6062117458        4.7363993397
  O        -9.3836198173       -2.7271085544        3.2939504316
  O        -8.6749593009       -4.3055307223        4.7674147240
  C        -5.4063829718       -6.0836320759       -6.1576393485
  H        -6.0390997038       -6.5934387315       -6.8768176703
  O        -5.3157147411       -6.5042627408       -4.9638375967
  O        -4.7997118332       -5.0931497246       -6.6842330004
  C        -7.4812021438       -7.2683192216       -1.8337008205
  H        -7.8430239833       -7.7214409635       -2.7403108931
  O        -6.3847231004       -6.5596142310       -1.8855223803
  O        -8.0870004405       -7.4369608581       -0.7449951352
  C        -9.2637717352       -3.4248031045       -2.1287629167
  H        -9.5435102925       -4.0726156799       -2.9624854104
  O        -8.1685743898       -2.7562864935       -2.2769679175
  O        -9.8293124780       -3.4993302663       -1.0042472880
  C        -6.7198117275       -1.5155721631       -7.0057360974
  H        -7.7266400310       -1.9701098143       -7.1795729881
  O        -6.3208037730       -1.2812141421       -5.7891801227
  O        -6.0546670581       -1.2647410752       -8.0219575549
  C        -1.9610306020        5.6962737072       -7.4797868569
  H        -1.8068881661        6.7616764611       -7.4798700689
  O        -2.4613788677        5.1953402046       -6.4147373301
  O        -1.7592038190        5.0404242691       -8.5376948407
  C        -1.7153677193        9.0065729983       -3.7807068554
  H        -1.3518565997        9.2891789052       -4.8285272378
  O        -1.7735635219        7.7204009534       -3.5311974415
  O        -1.9589811591        9.8892286280       -2.9296575010
  C         2.5176986766        8.6527359013       -4.1276241396
  H         2.7356319561        9.0838176512       -5.0545617483
  O         2.0941304229        7.4607563111       -4.0382054964
  O         2.6632020791        9.4136986823       -3.1567247192
  C         1.7405814703        5.3615037054       -8.2026998584
  H         1.4592813282        6.4433815072       -8.3446733349
  O         2.2712544771        5.0744229803       -7.0359036782
  O         1.5374971892        4.4786315137       -9.0204193621
  C         9.4791869119        2.6134878200        3.9079418032
  H         9.6264681644        3.4611325178        4.5867541287
  O         8.5294682966        2.7206869475        3.0468687327
  O        10.1884170796        1.5361363159        4.0354546634
  C         6.6320899766        7.0427804887        3.3240585285
  H         7.5183451153        7.1103565644        4.0025867163
  O         6.4921259472        6.1579139584        2.4473334656
  O         5.8014508194        7.8970951585        3.5804466065
  C         4.7468288793        5.8510846562        6.9391041765
  H         5.6837062732        5.7110173508        7.4566454645
  O         4.3315486404        4.9881730889        6.0840680113
  O         4.1390624477        6.9214380767        7.1338855679
  C         7.5642974957        1.7429307679        7.1823006621
  H         8.1116275708        2.6102062210        7.6466333920
  O         6.7423080014        2.0330978891        6.2208765696
  O         7.8434776238        0.5800715711        7.5931108165
     227
 i =        1, time =        1.000, E =        -9.1171628027
 Cd        -8.6193427996        0.4796381031        3.4771650167
 Cd        -5.8715228030       -0.2572063468        7.1144000699
 Cd        -8.4082117588       -2.1541261538        0.3852407789
 Cd        -6.8927328091       -3.2918135783        3.9610968656
 Cd        -3.6901785007       -3.7003770672        7.3823754438
 Cd        -6.4419672428       -6.2357507708        0.4642816783
 Cd        -4.3123545571       -6.8296134070        3.9052066333
 Cd        -6.1163710629        3.8609265675        2.9055499991
 Cd        -3.6066075631        2.8812218526        6.5904011369
 Cd        -6.7534209923        1.1872294492       -0.3192193159
 Cd        -4.0444038478        0.0755171349        3.0501798667
 Cd        -1.7741901849       -0.3125671351        6.8335652973
 Cd        -6.3660828706       -1.4624224755       -3.4401682105
 Cd        -4.3613409085       -3.1217888102       -0.1745579658
 Cd        -2.2426093786       -3.6215623486        3.6336045900
 Cd         0.1787062810       -3.9615847292        7.0369291192
 Cd        -4.2693558283       -5.9882254621       -2.9988611505
 Cd        -2.2486980806       -6.7966182526        0.6791773558
 Cd         0.0677896484       -7.3029795386        3.8542251703
 Cd        -4.0802848059        7.4119366254        2.4182542071
 Cd        -1.6107668424        6.4879258262        6.2509599246
 Cd        -4.3325185294        4.8128029190       -0.6769460295
 Cd        -1.8303892658        3.6695883629        3.1589455676
 Cd         0.4898038106        3.1633466988        6.7205202248
 Cd        -4.5996246902        2.0000996542       -4.0890024851
 Cd        -2.1628824157        1.0181189507       -0.4517501548
 Cd         0.1384277547       -0.0681710885        3.1344066540
 Cd         2.6424460684       -0.6635628622        6.8958899882
 Cd        -4.1540631649       -0.5351519805       -6.9611280160
 Cd        -2.2031728577       -1.8491025648       -3.4900226621
 Cd         0.0358079888       -2.8474737514       -0.0250966920
 Cd         2.4397108989       -3.8215454571        3.5304662876
 Cd         4.5938421051       -4.2151902478        6.5946692376
 Cd        -2.6316818474       -4.5699753901       -6.0785403007
 Cd        -0.3609698633       -6.1210507322       -3.0631257681
 Cd         1.9864056492       -6.8523351494       -0.0374609341
 Cd         4.3578726095       -7.5050481003        3.0973989322
 Cd        -2.4320590540        8.2867244320       -1.2003416771
 Cd         0.1211451809        6.7911365092        2.0747934114
 Cd         2.2580842020        6.3879376422        5.9826415742
 Cd        -2.2740396589        5.5405389741       -4.1121155087
 Cd         0.1544605450        4.6148594671       -0.9823363017
 Cd         2.6165204759        3.7533525883        2.4610243332
 Cd         4.3939123337        2.5015211788        5.6446872464
 Cd        -2.3864776283        3.0937050901       -7.5398939373
 Cd        -0.1312635690        1.7709121251       -4.3474167366
 Cd         2.1531614959        0.8600184045       -0.9631986397
 Cd         4.3034592188       -0.4402628796        2.5248090425
 Cd         6.4920191430       -0.6517891157        6.0104803166
 Cd         0.4042649506       -0.5927778294       -7.0621295218
 Cd         2.1513052495       -1.8410900444       -3.9633278374
 Cd         4.1299647550       -2.9780203191       -0.5482292275
 Cd         6.9198165398       -3.7969786974        2.8855289582
 Cd         1.0695405510       -4.7691951878       -6.7906726856
 Cd         3.6506189581       -5.7625103760       -3.6177125299
 Cd         5.7329591227       -6.5640213413       -0.3327694344
 Cd         2.4551214476        8.1222952550       -1.1565991355
 Cd         4.4053344213        7.2897924453        1.7948235117
 Cd         2.3804041012        5.2452013436       -4.8087221255
 Cd         4.8189755648        4.7184507157       -1.4284044442
 Cd         6.7582246463        3.8401480400        2.0311403913
 Cd         2.6218027202        2.7828930558       -7.7033759192
 Cd         4.8493401061        1.7846635551       -4.5231283268
 Cd         6.7277095216        1.0650172272       -0.9631028866
 Cd         8.8867399473        0.4155718180        2.4347924819
 Cd         4.3617921459       -0.9226040276       -7.7309252057
 Cd         6.7427699700       -1.9756119339       -4.2012693380
 Cd         8.5291275050       -2.6208006660       -0.2527863547
 Se        -9.0547855672        0.2428797429        0.9183195432
 Se        -6.3727651281       -0.6564853380        4.4183084422
 Se        -3.9345363519       -1.3489407275        8.2965297215
 Se        -6.5831295926       -3.7425297234        1.3880868458
 Se        -4.5790834177       -4.2748341334        4.8597294903
 Se        -4.6122329943       -7.7765913037        1.5328388271
 Se        -6.6422718349        3.9855697379        0.4577117474
 Se        -4.0719707677        2.6208506768        3.9142939403
 Se        -1.6333272788        2.0117361568        7.9251321305
 Se        -6.7116719545        0.9828927996       -3.1654764083
 Se        -4.4070711502       -0.2111880079        0.3948912855
 Se        -2.0531413200       -1.1153526964        4.2593863718
 Se         0.4060038931       -1.5661513182        8.0650845273
 Se        -4.4160787459       -3.1299864209       -2.8046666479
 Se        -2.2374499746       -4.0915914825        0.9472053995
 Se         0.1530618775       -4.8127608654        4.4858034980
 Se        -2.4165665467       -7.4206202267       -2.0539522923
 Se        -0.0669641471       -7.8791398524        1.3095374866
 Se        -4.5521335066        7.5948431509       -0.0125923104
 Se        -1.8467550998        6.3632987728        3.5400689343
 Se         0.4037029894        5.8261673985        7.5858753262
 Se        -4.4660337370        4.5539635314       -3.3489557407
 Se        -2.0809897125        3.7152541838        0.3431791842
 Se         0.4982272709        2.6970088183        3.7286760422
 Se         2.7717988152        1.9958730193        7.6262210473
 Se        -4.6131828703        2.0747787500       -6.9049113057
 Se        -2.2788908244        0.8535270744       -3.1260982569
 Se         0.0145508789       -0.1632197237        0.3853955820
 Se         2.3129682803       -1.3189375690        3.9990058664
 Se         4.8631542665       -1.8843021344        7.7354162796
 Se        -2.0702161343       -1.9664165931       -6.4603817850
 Se        -0.0447290240       -3.1599287825       -2.8087922748
 Se         2.2323310150       -4.2314620151        0.7809377854
 Se         4.8362407330       -4.9530918880        4.0967215363
 Se        -0.7551444298       -6.2848212634       -5.8413958549
 Se         1.9250139003       -7.4790524632       -2.6076291612
 Se         4.2593676558       -8.3791853765        0.7364070393
 Se         0.0356444950        7.3686231680       -0.4913396387
 Se         2.3809161718        6.5252197466        3.1424644275
 Se         0.0437172024        4.4288356970       -3.5939990865
 Se         2.5163928953        3.6274405229       -0.0568228680
 Se         4.7726998058        2.4661921171        3.1253343224
 Se         0.0455235121        1.9299696994       -6.9705043113
 Se         2.2758285444        0.7648349393       -3.6570707689
 Se         4.3766531713       -0.2853668788       -0.0177965204
 Se         6.9677204270       -1.1294308560        3.5582484634
 Se         2.2369982402       -2.2681775677       -6.6837675752
 Se         4.3737402729       -3.1974958091       -3.2156657425
 Se         6.4331633985       -4.1116853443        0.4129791483
 Se         4.8515393434        7.5524226598       -0.7459209072
 Se         4.8774892341        4.5489884479       -4.0122275677
 Se         7.0855956978        3.5934547954       -0.6429045118
 Se         4.7816883876        1.5264181421       -7.5555490675
 Se         6.9185553353        0.6112276033       -3.7073749418
 Se         9.1068709067       -0.0626942914       -0.0923298417
  C         6.9966794972       -6.9498462840       -2.8612692621
  H         7.7649322095       -7.1224747738       -3.6684216540
  O         5.8439781664       -6.4672134029       -3.1401068865
  O         7.2884937491       -7.2741226966       -1.6935726552
  C         3.3950630114       -6.2673096248       -6.9491843882
  H         4.3444066225       -6.8936096686       -7.0753272229
  O         3.0188337099       -5.7908900058       -5.7819629472
  O         2.6177055546       -6.1689131404       -7.9239843293
  C         6.3106280663       -2.9078485572       -7.4910625990
  H         7.1299137504       -3.7048862282       -7.4466889051
  O         6.0085471305       -2.3181913589       -6.3474013595
  O         5.9393604099       -2.4742376814       -8.6124709602
  C         8.9774533153       -3.3708794577       -3.4296512617
  H         9.9250180562       -3.8774829974       -3.1826003730
  O         8.5682669495       -3.4148643588       -4.6046230078
  O         8.2717307813       -2.6966742960       -2.5200158567
  C         9.7980793410       -4.6252027448        2.1809999536
  H        10.6408655401       -5.3318691344        2.3887999993
  O         9.7470766535       -4.1804966981        0.9925753214
  O         9.0285642932       -4.5681182381        3.1870391166
  C        -2.8217330027       -8.8884431598        5.3598596992
  H        -2.4154187803       -9.9024293192        5.4343946394
  O        -1.9847259923       -7.9306552947        5.0423322808
  O        -4.0904684422       -8.7274438382        5.4044147780
  C         2.9969231680       -8.6916278325        5.2874258104
  H         2.6967725338       -9.0398269484        6.2934215078
  O         1.9993052110       -8.3578669867        4.5594159951
  O         4.2233799133       -8.6005471666        4.9154255058
  C         2.8793070117       -5.7053266294        8.2324319666
  H         2.3955873073       -6.3773024893        8.9303283437
  O         2.2189472154       -4.8088204016        7.6163523895
  O         4.1498453039       -5.9034671807        8.1535964669
  C        -2.5347144847       -5.9173472540        8.5220129563
  H        -2.0052498086       -6.7390725628        9.0096019785
  O        -1.9214137923       -5.2583409516        7.5983313614
  O        -3.6522446263       -5.5084026529        8.8927630111
  C        -6.8630690663        2.3027051354        7.3892139539
  H        -7.2086193538        3.3071349018        7.3885257928
  O        -5.6212889933        2.1591152553        7.5337022177
  O        -7.6695534426        1.3702592708        7.1999483585
  C        -4.1169947647        6.2828075497        7.2281966871
  H        -5.2418933127        6.2896177269        7.3832000201
  O        -3.5266669030        5.2290376417        6.7738338169
  O        -3.5910875267        7.4673367721        7.3180634605
  C        -6.2567456181        7.1462481526        4.0780907282
  H        -7.2111390447        7.1649409639        4.6689854642
  O        -5.8090572979        6.0478376480        3.6278646007
  O        -5.6127524799        8.2207225032        3.8487033158
  C        -9.2742268622        2.9617606070        4.4604752156
  H        -9.7855372140        3.8838940690        4.7760086716
  O        -8.0588231050        3.0119106209        4.1192743855
  O       -10.0810933447        1.9792540714        4.3921844707
  C        -9.6032843014       -3.5282228095        4.2551697353
  H       -10.5971720209       -3.6001750875        4.7566807035
  O        -9.3832901416       -2.7227950684        3.2942627947
  O        -8.6785709007       -4.3016673158        4.7629669878
  C        -5.4081381665       -6.0792385656       -6.1561994976
  H        -6.0546960796       -6.5859836395       -6.8890942905
  O        -5.3110365150       -6.5040987554       -4.9651807013
  O        -4.7983940715       -5.0927450249       -6.6853123381
  C        -7.4874967724       -7.2705807683       -1.8347928722
  H        -7.8388434959       -7.7173330376       -2.7530342297
  O        -6.3887444451       -6.5549968344       -1.8842944542
  O        -8.0716929082       -7.4409155859       -0.7458295006
  C        -9.2562852327       -3.4269954573       -2.1219781138
  H        -9.5270787848       -4.0663584857       -2.9594189931
  O        -8.1698285142       -2.7554078017       -2.2727204364
  O        -9.8242286270       -3.4939648987       -1.0092058936
  C        -6.7207128434       -1.5101398087       -7.0046057860
  H        -7.7450574417       -1.9674181007       -7.1698505571
  O        -6.3198469243       -1.2781026784       -5.7990019008
  O        -6.0632992455       -1.2634564203       -8.0155153031
  C        -1.9629142216        5.6954916608       -7.4853234536
  H        -1.7770888886        6.7764005651       -7.4923242406
  O        -2.4611906934        5.1867129375       -6.4087011388
  O        -1.7564111193        5.0404080284       -8.5283571488
  C        -1.7168998343        9.0075166574       -3.7839132611
  H        -1.3493405476        9.2660238074       -4.8465614694
  O        -1.7700506541        7.7194604247       -3.5246255618
  O        -1.9637547646        9.8895898884       -2.9408440417
  C         2.5062461020        8.6538942333       -4.1272904752
  H         2.7131102182        9.0638249498       -5.0476060874
  O         2.0944624382        7.4532307451       -4.0307299764
  O         2.6627621583        9.4111673127       -3.1552379920
  C         1.7411667993        5.3672437490       -8.1968734814
  H         1.4358383610        6.4416008070       -8.3632925476
  O         2.2781632627        5.0766064542       -7.0406921312
  O         1.5312384016        4.4833532120       -9.0175819991
  C         9.4768963924        2.6096291932        3.8999958425
  H         9.6131090334        3.4671477718        4.5843902861
  O         8.5279918317        2.7173629796        3.0491752390
  O        10.1885474065        1.5401477862        4.0330950777
  C         6.6326653531        7.0383154371        3.3281985903
  H         7.5082674956        7.1289998248        4.0070788575
  O         6.4944940947        6.1604175331        2.4465551023
  O         5.7954823883        7.9030131079        3.5812867650
  C         4.7447642673        5.8524876762        6.9354088710
  H         5.7085862008        5.7040540943        7.4370666698
  O         4.3285937260        4.9885490968        6.0815338515
  O         4.1456524894        6.9224073592        7.1371676930
  C         7.5603402436        1.7452804427        7.1878950548
  H         8.1158840311        2.6116602203        7.6593692779
  O         6.7458687050        2.0302532628        6.2244560583
  O         7.8435107548        0.5821487904        7.5895362783
     227
 i =        2, time =        2.000, E =        -9.1316528467
 Cd        -8.6169984960        0.4783007813        3.4767477643
 Cd        -5.8707127068       -0.2577005053        7.1136639210
 Cd        -8.4088505086       -2.1551410201        0.3836983374
 Cd        -6.8897072911       -3.2939529810        3.9621515472