     227
 i =        0, time =        0.000, E =        -8.8147294116
 Cd        -8.6216924880        0.4810107428        3.4775887729
 Cd        -5.8723589632       -0.2566559957        7.1151373767
 Cd        -8.4076147924       -2.1531404527        0.3867588804
 Cd        -6.8957642261       -3.2896665849        3.9600318291
 Cd        -3.6930098048       -3.6992689615        7.3819491709
 Cd        -6.4429261463       -6.2347087238        0.4622469067
 Cd        -4.3123952394       -6.8285875372        3.9039095072
 Cd        -6.1141073353        3.8626235599        2.9066844924
 Cd        -3.6048790416        2.8797284733        6.5917986711
 Cd        -6.7531255596        1.1841266196       -0.3182182747
 Cd        -4.0437606329        0.0729837467        3.0511954168
 Cd        -1.7753257667       -0.3121054857        6.8316599018
 Cd        -6.3661028473       -1.4630135273       -3.4383357626
 Cd        -4.3602814436       -3.1214810613       -0.1759283953
 Cd        -2.2424276819       -3.6242998489        3.6335413818
 Cd         0.1757294635       -3.9625201566        7.0364714760
 Cd        -4.2692200317       -5.9860442556       -3.0005266361
 Cd        -2.2482225396       -6.7972628816        0.6786391664
 Cd         0.0669003827       -7.3030327295        3.8545421700
 Cd        -4.0792754193        7.4105475565        2.4175118797
 Cd        -1.6116442377        6.4880648240        6.2478272306
 Cd        -4.3308002626        4.8127262164       -0.6762739309
 Cd        -1.8326132452        3.6694977750        3.1598212265
 Cd         0.4939817277        3.1637060931        6.7202662426
 Cd        -4.5980154021        1.9988297698       -4.0880170010
 Cd        -2.1651194586        1.0165564496       -0.4536921834
 Cd         0.1376109507       -0.0659106884        3.1336818174
 Cd         2.6419074521       -0.6636939286        6.8958319365
 Cd        -4.1515129292       -0.5348426091       -6.9620217917
 Cd        -2.2012490343       -1.8491984656       -3.4894107829
 Cd         0.0359311218       -2.8494155653       -0.0264680683
 Cd         2.4407298775       -3.8224684908        3.5289587884
 Cd         4.5907434619       -4.2169180472        6.5928471603
 Cd        -2.6321953796       -4.5685798778       -6.0773989300
 Cd        -0.3638438279       -6.1221236347       -3.0620735359
 Cd         1.9882729153       -6.8506852632       -0.0376753302
 Cd         4.3604701588       -7.5063202656        3.0981086138
 Cd        -2.4313710890        8.2839908015       -1.2010761441
 Cd         0.1210964618        6.7915494583        2.0748938605
 Cd         2.2602783261        6.3879934074        5.9824457591
 Cd        -2.2743307721        5.5403016700       -4.1096429978
 Cd         0.1552258413        4.6164378819       -0.9814446932
 Cd         2.6173372932        3.7540356816        2.4616712460
 Cd         4.3934694910        2.5024270436        5.6448470259
 Cd        -2.3839877703        3.0961459608       -7.5397423510
 Cd        -0.1308699873        1.7716472388       -4.3458913396
 Cd         2.1522040622        0.8595996928       -0.9600505658
 Cd         4.3027041934       -0.4425155449        2.5248589789
 Cd         6.4943132815       -0.6514444341        6.0110723312
 Cd         0.4032906214       -0.5920449882       -7.0625722312
 Cd         2.1504065746       -1.8410095193       -3.9631978812
 Cd         4.1282053355       -2.9764966895       -0.5499119195
 Cd         6.9189885741       -3.8001688729        2.8840486736
 Cd         1.0693858855       -4.7693596381       -6.7909688629
 Cd         3.6529341800       -5.7620820022       -3.6150795142
 Cd         5.7341856059       -6.5625995016       -0.3323817960
 Cd         2.4532379782        8.1225833618       -1.1556872380
 Cd         4.4025673150        7.2904811152        1.7928276254
 Cd         2.3800547108        5.2453457502       -4.8107637235
 Cd         4.8184663347        4.7191125514       -1.4277792117
 Cd         6.7589411702        3.8390778732        2.0295448973
 Cd         2.6210634084        2.7844913241       -7.7035228004
 Cd         4.8495943395        1.7843685348       -4.5225056138
 Cd         6.7261500983        1.0662237140       -0.9642295531
 Cd         8.8881450478        0.4141445330        2.4369093904
 Cd         4.3615782352       -0.9213178924       -7.7328888960
 Cd         6.7438649008       -1.9767569930       -4.2031112584
 Cd         8.5272445020       -2.6218905711       -0.2551455218
 Se        -9.0557725106        0.2424574140        0.9180313808
 Se        -6.3745872764       -0.6570220647        4.4225742627
 Se        -3.9358548519       -1.3506397678        8.2925868769
 Se        -6.5830028390       -3.7408669090        1.3890860046
 Se        -4.5802302415       -4.2716541219        4.8585926421
 Se        -4.6110671623       -7.7792240778        1.5343213278
 Se        -6.6407812351        3.9866809498        0.4586064126
 Se        -4.0705866514        2.6241591830        3.9150270775
 Se        -1.6315747320        2.0143859544        7.9219454430
 Se        -6.7106235468        0.9827493806       -3.1628202938
 Se        -4.4077684895       -0.2106461950        0.3970531668
 Se        -2.0534879979       -1.1190641497        4.2604482105
 Se         0.4069246601       -1.5676855049        8.0617057342
 Se        -4.4126107232       -3.1307459794       -2.8028288282
 Se        -2.2371864822       -4.0884616040        0.9473336128
 Se         0.1541797359       -4.8148952714        4.4843326207
 Se        -2.4147106009       -7.4199706225       -2.0529393442
 Se        -0.0662571417       -7.8800811154        1.3078284855
 Se        -4.5519687636        7.5920037884       -0.0122560791
 Se        -1.8482840651        6.3647212661        3.5390459072
 Se         0.4006735392        5.8241498358        7.5878867146
 Se        -4.4655945585        4.5529209660       -3.3484418515
 Se        -2.0798083538        3.7153034916        0.3451575142
 Se         0.4973892782        2.6967113851        3.7286137790
 Se         2.7724753484        1.9958260876        7.6298945277
 Se        -4.6126224962        2.0736182894       -6.9031574659
 Se        -2.2770211290        0.8531533747       -3.1284312065
 Se         0.0138865169       -0.1636477002        0.3858468104
 Se         2.3115473387       -1.3198431962        4.0017354986
 Se         4.8624545925       -1.8855864388        7.7371297607
 Se        -2.0700877949       -1.9675257511       -6.4603372509
 Se        -0.0447057629       -3.1582708631       -2.8090856920
 Se         2.2343306950       -4.2299664240        0.7817840723
 Se         4.8342987615       -4.9516929708        4.0974643468
 Se        -0.7556003326       -6.2829108386       -5.8406699955
 Se         1.9243057511       -7.4784768035       -2.6074198353
 Se         4.2543989663       -8.3809591814        0.7363809319
 Se         0.0386925703        7.3677075300       -0.4939635450
 Se         2.3791568525        6.5289221229        3.1400383851
 Se         0.0465974103        4.4270318221       -3.5936563407
 Se         2.5167269427        3.6273521599       -0.0581806204
 Se         4.7705604635        2.4670139639        3.1233546104
 Se         0.0435933033        1.9323944164       -6.9695738842
 Se         2.2733127965        0.7623703678       -3.6584263160
 Se         4.3816175435       -0.2841549253       -0.0177063702
 Se         6.9670500347       -1.1290204494        3.5565582379
 Se         2.2410869402       -2.2702007814       -6.6798205275
 Se         4.3723294721       -3.1971869108       -3.2130677403
 Se         6.4331938555       -4.1098532443        0.4136420186
 Se         4.8503033307        7.5509093293       -0.7463548497
 Se         4.8776288797        4.5477652435       -4.0091414448
 Se         7.0830986217        3.5950723552       -0.6434567968
 Se         4.7810064642        1.5273410534       -7.5566303287
 Se         6.9188050062        0.6130038217       -3.7081238627
 Se         9.1066871843       -0.0609359671       -0.0919647969
  C         6.9955771113       -6.9586634775       -2.8583426301
  H         7.7780160969       -7.1271873265       -3.6573399650
  O         5.8389952916       -6.4652991204       -3.1445809228
  O         7.2920676004       -7.2683568805       -1.6893132711
  C         3.3939431960       -6.2668607509       -6.9513074648
  H         4.3245440932       -6.8689211647       -7.0591687882
  O         3.0202466073       -5.7860511295       -5.7843136273
  O         2.6220129789       -6.1746538788       -7.9242101403
  C         6.3116555909       -2.9071154185       -7.4921130606
  H         7.0978863851       -3.7212906458       -7.4285512081
  O         6.0096715894       -2.3219711192       -6.3505932827
  O         5.9403243477       -2.4750431756       -8.6116316973
  C         8.9837561036       -3.3697375837       -3.4349055328
  H         9.9249943929       -3.8864043165       -3.1840078659
  O         8.5659407989       -3.4209184445       -4.6048832464
  O         8.2714489672       -2.6971151254       -2.5207012617
  C         9.7902109758       -4.6282247391        2.1768529346
  H        10.6284324694       -5.3337138149        2.3552924638
  O         9.7484501532       -4.1824896055        0.9942458601
  O         9.0219926648       -4.5705851174        3.1873629795
  C        -2.8252708508       -8.8894178348        5.3653894160
  H        -2.3915771747       -9.8892286280        5.4446685031
  O        -1.9808601030       -7.9304545651        5.0436955975
  O        -4.0908415257       -8.7280019527        5.4030844137
  C         3.0047406823       -8.6887063298        5.2919739424
  H         2.6853413808       -9.0312323512        6.2714246943
  O         1.9985977812       -8.3553887881        4.5599054594
  O         4.2197147413       -8.6069092298        4.9235206312
  C         2.8732291572       -5.7090624943        8.2322507888
  H         2.4095730423       -6.3582442170        8.9295273658
  O         2.2236878889       -4.8031284854        7.6183804854
  O         4.1525405945       -5.8988692439        8.1468427445
  C        -2.5324052264       -5.9090323801        8.5168983878
  H        -2.0058427467       -6.7599986745        9.0204193621
  O        -1.9189018681       -5.2527647032        7.5983339134
  O        -3.6521974131       -5.4981014961        8.8936623702
  C        -6.8661340661        2.3082426882        7.3884767521
  H        -7.2433530482        3.2983326111        7.3747512577
  O        -5.6189307919        2.1553364867        7.5292857639
  O        -7.6694328727        1.3672322100        7.2032576312
  C        -4.1128935570        6.2776012356        7.2258109093
  H        -5.2184092536        6.2949225170        7.4003980339
  O        -3.5215502414        5.2331222329        6.7794929280
  O        -3.5956064510        7.4679880815        7.3184340370
  C        -6.2584500423        7.1467273309        4.0778865765
  H        -7.2018864753        7.1620259062        4.6862261037
  O        -5.8042352338        6.0508881806        3.6277903665
  O        -5.6141473350        8.2227071687        3.8530055117
  C        -9.2670155991        2.9624473135        4.4549609073
  H        -9.7760873251        3.8307467380        4.7753730710
  O        -8.0580447847        3.0137717908        4.1153681461
  O       -10.0869615960        1.9755230626        4.3964141791
  C        -9.5997958208       -3.5202239981        4.2555074891
  H       -10.6284324694       -3.6062117458        4.7363993397
  O        -9.3836198173       -2.7271085544        3.2939504316
  O        -8.6749593009       -4.3055307223        4.7674147240
  C        -5.4063829718       -6.0836320759       -6.1576393485
  H        -6.0390997038       -6.5934387315       -6.8768176703
  O        -5.3157147411       -6.5042627408       -4.9638375967
  O        -4.7997118332       -5.0931497246       -6.6842330004
  C        -7.4812021438       -7.2683192216       -1.8337008205
  H        -7.8430239833       -7.7214409635       -2.7403108931
  O        -6.3847231004       -6.5596142310       -1.8855223803
  O        -8.0870004405       -7.4369608581       -0.7449951352
  C        -9.2637717352       -3.4248031045       -2.1287629167
  H        -9.5435102925       -4.0726156799       -2.9624854104
  O        -8.1685743898       -2.7562864935       -2.2769679175
  O        -9.8293124780       -3.4993302663       -1.0042472880
  C        -6.7198117275       -1.5155721631       -7.0057360974
  H        -7.7266400310       -1.9701098143       -7.1795729881
  O        -6.3208037730       -1.2812141421       -5.7891801227
  O        -6.0546670581       -1.2647410752       -8.0219575549
  C        -1.9610306020        5.6962737072       -7.4797868569
  H        -1.8068881661        6.7616764611       -7.4798700689
  O        -2.4613788677        5.1953402046       -6.4147373301
  O        -1.7592038190        5.0404242691       -8.5376948407
  C        -1.7153677193        9.0065729983       -3.7807068554
  H        -1.3518565997        9.2891789052       -4.8285272378
  O        -1.7735635219        7.7204009534       -3.5311974415
  O        -1.9589811591        9.8892286280       -2.9296575010
  C         2.5176986766        8.6527359013       -4.1276241396
  H         2.7356319561        9.0838176512       -5.0545617483
  O         2.0941304229        7.4607563111       -4.0382054964
  O         2.6632020791        9.4136986823       -3.1567247192
  C         1.7405814703        5.3615037054       -8.2026998584
  H         1.4592813282        6.4433815072       -8.3446733349
  O         2.2712544771        5.0744229803       -7.0359036782
  O         1.5374971892        4.4786315137       -9.0204193621
  C         9.4791869119        2.6134878200        3.9079418032
  H         9.6264681644        3.4611325178        4.5867541287
  O         8.5294682966        2.7206869475        3.0468687327
  O        10.1884170796        1.5361363159        4.0354546634
  C         6.6320899766        7.0427804887        3.3240585285
  H         7.5183451153        7.1103565644        4.0025867163
  O         6.4921259472        6.1579139584        2.4473334656
  O         5.8014508194        7.8970951585        3.5804466065
  C         4.7468288793        5.8510846562        6.9391041765
  H         5.6837062732        5.7110173508        7.4566454645
  O         4.3315486404        4.9881730889        6.0840680113
  O         4.1390624477        6.9214380767        7.1338855679
  C         7.5642974957        1.7429307679        7.1823006621
  H         8.1116275708        2.6102062210        7.6466333920
  O         6.7423080014        2.0330978891        6.2208765696
  O         7.8434776238        0.5800715711        7.5931108165
     227
 i =        1, time =        1.000, E =        -8.8237463676
 Cd        -8.6193426105        0.4796372802        3.4771652659
 Cd        -5.8715232558       -0.2572070857        7.1143998087
 Cd        -8.4082113017       -2.1541261639        0.3852408203
 Cd        -6.8927322268       -3.2918132639        3.9610970418
 Cd        -3.6901787527       -3.7003767244        7.3823745324
 Cd        -6.4419670965       -6.2357501451        0.4642824970
 Cd        -4.3123546306       -6.8296125546        3.9052068051
 Cd        -6.1163708672        3.8609262104        2.9055502240
 Cd        -3.6066074007        2.8812216575        6.5904002273
 Cd        -6.7534205963        1.1872293008       -0.3192191869
 Cd        -4.0444034984        0.0755170453        3.0501794092
 Cd        -1.7741903277       -0.3125674494        6.8335641746
 Cd        -6.3660825229       -1.4624232944       -3.4401678144
 Cd        -4.3613411126       -3.1217886357       -0.1745579822
 Cd        -2.2426091694       -3.6215628388        3.6336042817
 Cd         0.1787054881       -3.9615846609        7.0369287521
 Cd        -4.2693553439       -5.9882243046       -2.9988608982
 Cd        -2.2486986163       -6.7966174463        0.6791775387
 Cd         0.0677893092       -7.3029795164        3.8542251638
 Cd        -4.0802833226        7.4119367280        2.4182543087
 Cd        -1.6107663165        6.4879265358        6.2509589415
 Cd        -4.3325178029        4.8128029360       -0.6769456525
 Cd        -1.8303889168        3.6695883377        3.1589454108
 Cd         0.4898037768        3.1633471189        6.7205190084
 Cd        -4.5996234717        2.0000992181       -4.0890027906
 Cd        -2.1628821652        1.0181191494       -0.4517498431
 Cd         0.1384275384       -0.0681707417        3.1344062012
 Cd         2.6424461782       -0.6635627566        6.8958887000
 Cd        -4.1540620267       -0.5351517684       -6.9611279007
 Cd        -2.2031726796       -1.8491022524       -3.4900228240
 Cd         0.0358079501       -2.8474732030       -0.0250966187
 Cd         2.4397110812       -3.8215458047        3.5304660913
 Cd         4.5938425722       -4.2151898987        6.5946685526
 Cd        -2.6316816646       -4.5699747868       -6.0785398269
 Cd        -0.3609697661       -6.1210493836       -3.0631255012
 Cd         1.9864059796       -6.8523343092       -0.0374607115
 Cd         4.3578730464       -7.5050467753        3.0973981131
 Cd        -2.4320588201        8.2867246281       -1.2003408940
 Cd         0.1211451436        6.7911365408        2.0747927002
 Cd         2.2580832107        6.3879380284        5.9826400001
 Cd        -2.2740393491        5.5405389640       -4.1121151517
 Cd         0.1544605916        4.6148591747       -0.9823355807
 Cd         2.6165201002        3.7533531502        2.4610249940
 Cd         4.3939117971        2.5015206500        5.6446872181
 Cd        -2.3864771275        3.0937036320       -7.5398943697
 Cd        -0.1312635647        1.7709115894       -4.3474164097
 Cd         2.1531607214        0.8600185500       -0.9631984028
 Cd         4.3034591181       -0.4402630613        2.5248096943
 Cd         6.4920185911       -0.6517894486        6.0104802496
 Cd         0.4042644613       -0.5927778598       -7.0621298495
 Cd         2.1513045207       -1.8410900273       -3.9633274729
 Cd         4.1299641807       -2.9780200205       -0.5482290866
 Cd         6.9198161043       -3.7969783658        2.8855297165
 Cd         1.0695394398       -4.7691937186       -6.7906732328
 Cd         3.6506184391       -5.7625098789       -3.6177117194
 Cd         5.7329579921       -6.5640205387       -0.3327685403
 Cd         2.4551207265        8.1222954257       -1.1565980633
 Cd         4.4053335834        7.2897927981        1.7948228326
 Cd         2.3804040276        5.2452005478       -4.8087214626
 Cd         4.8189745828        4.7184507396       -1.4284035187
 Cd         6.7582242261        3.8401481574        2.0311401271
 Cd         2.6218023232        2.7828922367       -7.7033758706
 Cd         4.8493387145        1.7846636959       -4.5231287529
 Cd         6.7277085537        1.0650164869       -0.9631024092
 Cd         8.8867399090        0.4155710732        2.4347925244
 Cd         4.3617909696       -0.9226041976       -7.7309257680
 Cd         6.7427691658       -1.9756115093       -4.2012690591
 Cd         8.5291275539       -2.6208003572       -0.2527856380
 Se        -9.0547885963        0.2428819197        0.9183183497
 Se        -6.3727654732       -0.6564848250        4.4183088348
 Se        -3.9345357465       -1.3489398885        8.2965334849
 Se        -6.5831296293       -3.7425301752        1.3880867207
 Se        -4.5790843674       -4.2748346232        4.8597303698
 Se        -4.6122335799       -7.7765950444        1.5328380383
 Se        -6.6422747973        3.9855706679        0.4577098873
 Se        -4.0719718988        2.6208504684        3.9142947880
 Se        -1.6333264474        2.0117368660        7.9251365312
 Se        -6.7116755805        0.9828950517       -3.1654763981
 Se        -4.4070721624       -0.2111884615        0.3948905868
 Se        -2.0531412760       -1.1153525125        4.2593873266
 Se         0.4060037402       -1.5661504065        8.0650877624
 Se        -4.4160796653       -3.1299877163       -2.8046677336
 Se        -2.2374494997       -4.0915919568        0.9472054909
 Se         0.1530615453       -4.8127608423        4.4858039231
 Se        -2.4165663013       -7.4206241201       -2.0539519858
 Se        -0.0669634143       -7.8791434547        1.3095369464
 Se        -4.5521373087        7.5948443162       -0.0125940053
 Se        -1.8467567219        6.3632996423        3.5400703766
 Se         0.4037033189        5.8261674872        7.5858798844
 Se        -4.4660370206        4.5539645867       -3.3489562397
 Se        -2.0809901727        3.7152542647        0.3431795511
 Se         0.4982282221        2.6970082164        3.7286771988
 Se         2.7717992354        1.9958735062        7.6262248965
 Se        -4.6131863527        2.0747802722       -6.9049123069
 Se        -2.2788917239        0.8535275753       -3.1260984292
 Se         0.0145512685       -0.1632196722        0.3853957786
 Se         2.3129681479       -1.3189369710        3.9990074908
 Se         4.8631552147       -1.8843018085        7.7354199917
 Se        -2.0702151628       -1.9664169609       -6.4603828883
 Se        -0.0447282178       -3.1599301178       -2.8087924898
 Se         2.2323309873       -4.2314630781        0.7809382118
 Se         4.8362415174       -4.9530931772        4.0967216132
 Se        -0.7551446635       -6.2848253847       -5.8413963493
 Se         1.9250141328       -7.4790562536       -2.6076304281
 Se         4.2593673900       -8.3791894225        0.7364056776
 Se         0.0356439048        7.3686245521       -0.4913407852
 Se         2.3809169880        6.5252201888        3.1424663368
 Se         0.0437177847        4.4288361862       -3.5939998942
 Se         2.5163938615        3.6274403086       -0.0568244413
 Se         4.7727009970        2.4661912626        3.1253336368
 Se         0.0455233104        1.9299717465       -6.9705062799
 Se         2.2758299758        0.7648360493       -3.6570716331
 Se         4.3766544692       -0.2853665612       -0.0177979376
 Se         6.9677213830       -1.1294308232        3.5582477101
 Se         2.2370001836       -2.2681795009       -6.6837685838
 Se         4.3737418741       -3.1974959518       -3.2156667630
 Se         6.4331634908       -4.1116858789        0.4129775794
 Se         4.8515433632        7.5524236038       -0.7459229128
 Se         4.8774916024        4.5489896561       -4.0122296359
 Se         7.0855987850        3.5934565282       -0.6429057371
 Se         4.7816920905        1.5264198181       -7.5555497515
 Se         6.9185587312        0.6112281760       -3.7073757098
 Se         9.1068735421       -0.0626929667       -0.0923318184
  C         6.9966797084       -6.9498474379       -2.8612692086
  H         7.7649322095       -7.1224747738       -3.6684216540
  O         5.8439869196       -6.4672175580       -3.1401090937
  O         7.2885043979       -7.2741284396       -1.6935816589
  C         3.3950624977       -6.2673102565       -6.9491850127
  H         4.3444066225       -6.8936096686       -7.0753272229
  O         3.0188378024       -5.7908952654       -5.7819717344
  O         2.6177111611       -6.1689188929       -7.9239889507
  C         6.3106280886       -2.9078481700       -7.4910638952
  H         7.1299137504       -3.7048862282       -7.4466889051
  O         6.0085496121       -2.3181958442       -6.3474087408
  O         5.9393664909       -2.4742430809       -8.6124747699
  C         8.9774542414       -3.3708792244       -3.4296517155
  H         9.9250180562       -3.8774829974       -3.1826003730
  O         8.5682739175       -3.4148694691       -4.6046253560
  O         8.2717367949       -2.6966776742       -2.5200217861
  C         9.7980802166       -4.6252030884        2.1810003009
  H        10.6408655401       -5.3318691344        2.3887999993
  O         9.7470854434       -4.1805031313        0.9925791553
  O         9.0285761504       -4.5681231587        3.1870414713
  C        -2.8217333518       -8.8884440761        5.3598596932
  H        -2.4154187803       -9.9024293192        5.4343946394
  O        -1.9847288386       -7.9306598414        5.0423372538
  O        -4.0904683821       -8.7274503680        5.4044197244
  C         2.9969234097       -8.6916287989        5.2874256608
  H         2.6967725338       -9.0398269484        6.2934215078
  O         1.9993106638       -8.3578735111        4.5594207103
  O         4.2233792865       -8.6005569707        4.9154395532
  C         2.8793074992       -5.7053265660        8.2324327144
  H         2.3955873073       -6.3773024893        8.9303283437
  O         2.2189525644       -4.8088264967        7.6163588393
  O         4.1498442566       -5.9034741929        8.1536037111
  C        -2.5347147102       -5.9173471438        8.5220140707
  H        -2.0052498086       -6.7390725628        9.0096019785
  O        -1.9214123217       -5.2583498501        7.5983351039
  O        -3.6522446686       -5.5084097103        8.8927695473
  C        -6.8630692568        2.3027049857        7.3892152249
  H        -7.2086193538        3.3071349018        7.3885257928
  O        -5.6212965168        2.1591195061        7.5337080944
  O        -7.6695599938        1.3702646856        7.1999502762
  C        -4.1169944632        6.2828081216        7.2281975693
  H        -5.2418933127        6.2896177269        7.3832000201
  O        -3.5266748184        5.2290419409        6.7738383528
  O        -3.5910934144        7.4673401294        7.3180674999
  C        -6.2567460526        7.1462489378        4.0780904015
  H        -7.2111390447        7.1649409639        4.6689854642
  O        -5.8090619139        6.0478436538        3.6278703670
  O        -5.6127613128        8.2207278617        3.8487107701
  C        -9.2742278526        2.9617611646        4.4604749134
  H        -9.7855372140        3.8838940690        4.7760086716
  O        -8.0588288491        3.0119127405        4.1192787306
  O       -10.0811007676        1.9792610391        4.3921887534
  C        -9.6032849791       -3.5282231927        4.2551701381
  H       -10.5971720209       -3.6001750875        4.7566807035
  O        -9.3832982078       -2.7227966333        3.2942642614
  O        -8.6785824319       -4.3016738773        4.7629722813
  C        -5.4081381529       -6.0792392243       -6.1562002010
  H        -6.0546960796       -6.5859836395       -6.8890942905
  O        -5.3110428279       -6.5041029894       -4.9651892189
  O        -4.7984033692       -5.0927479845       -6.6853162373
  C        -7.4874971983       -7.2705818263       -1.8347926931
  H        -7.8388434959       -7.7173330376       -2.7530342297
  O        -6.3887504534       -6.5550007854       -1.8843002418
  O        -8.0716994884       -7.4409204786       -0.7458340891
  C        -9.2562862011       -3.4269950916       -2.1219784245
  H        -9.5270787848       -4.0663584857       -2.9594189931
  O        -8.1698340587       -2.7554114248       -2.2727222228
  O        -9.8242344063       -3.4939690912       -1.0092103560
  C        -6.7207132335       -1.5101391785       -7.0046064828
  H        -7.7450574417       -1.9674181007       -7.1698505571
  O        -6.3198527874       -1.2781045305       -5.7990096960
  O        -6.0633082477       -1.2634597216       -8.0155208090
  C        -1.9629149393        5.6954918254       -7.4853241295
  H        -1.7770888886        6.7764005651       -7.4923242406
  O        -2.4611922361        5.1867201028       -6.4087072648
  O        -1.7564087966        5.0404180629       -8.5283632582
  C        -1.7169005412        9.0075174437       -3.7839131846
  H        -1.3493405476        9.2660238074       -4.8465614694
  O        -1.7700483995        7.7194692445       -3.5246307768
  O        -1.9637537673        9.8895962053       -2.9408501642
  C         2.5062467189        8.6538949155       -4.1272904615
  H         2.7131102182        9.0638249498       -5.0476060874
  O         2.0944621715        7.4532392590       -4.0307307165
  O         2.6627630612        9.4111724720       -3.1552452667
  C         1.7411676331        5.3672438410       -8.1968741351
  H         1.4358383610        6.4416008070       -8.3632925476
  O         2.2781626478        5.0766137969       -7.0407025220
  O         1.5312355030        4.4833600072       -9.0175880760
  C         9.4768975905        2.6096293324        3.8999955141
  H         9.6131090334        3.4671477718        4.5843902861
  O         8.5279990156        2.7173662069        3.0491809029
  O        10.1885531754        1.5401521977        4.0331012300
  C         6.6326657971        7.0383163454        3.3281982044
  H         7.5082674956        7.1289998248        4.0070788575
  O         6.4945002604        6.1604230756        2.4465585363
  O         5.7954892219        7.9030167136        3.5812936004
  C         4.7447640107        5.8524880792        6.9354097586
  H         5.7085862008        5.7040540943        7.4370666698
  O         4.3286000049        4.9885524938        6.0815368490
  O         4.1456620455        6.9224105481        7.1371740993
  C         7.5603404562        1.7452803987        7.1878960678
  H         8.1158840311        2.6116602203        7.6593692779
  O         6.7458758041        2.0302563023        6.2244595400
  O         7.8435157244        0.5821528545        7.5895420674
     227
 i =        2, time =        2.000, E =        -8.8382452174
 Cd        -8.6169977504        0.4782974882        3.4767487659
 Cd        -5.8707145148       -0.2577034518        7.1136628674
 Cd        -8.4088486723       -2.1551410417        0.3836985368
 Cd        -6.8897050508       -3.2939516937        3.9621523521