     227
 i =        0, time =        0.000, E =       -11.0631725462
 Cd        -8.6216924880        0.4810107428        3.4775887729
 Cd        -5.8723589632       -0.2566559957        7.1151373767
 Cd        -8.4076147924       -2.1531404527        0.3867588804
 Cd        -6.8957642261       -3.2896665849        3.9600318291
 Cd        -3.6930098048       -3.6992689615        7.3819491709
 Cd        -6.4429261463       -6.2347087238        0.4622469067
 Cd        -4.3123952394       -6.8285875372        3.9039095072
 Cd        -6.1141073353        3.8626235599        2.9066844924
 Cd        -3.6048790416        2.8797284733        6.5917986711
 Cd        -6.7531255596        1.1841266196       -0.3182182747
 Cd        -4.0437606329        0.0729837467        3.0511954168
 Cd        -1.7753257667       -0.3121054857        6.8316599018
 Cd        -6.3661028473       -1.4630135273       -3.4383357626
 Cd        -4.3602814436       -3.1214810613       -0.1759283953
 Cd        -2.2424276819       -3.6242998489        3.6335413818
 Cd         0.1757294635       -3.9625201566        7.0364714760
 Cd        -4.2692200317       -5.9860442556       -3.0005266361
 Cd        -2.2482225396       -6.7972628816        0.6786391664
 Cd         0.0669003827       -7.3030327295        3.8545421700
 Cd        -4.0792754193        7.4105475565        2.4175118797
 Cd        -1.6116442377        6.4880648240        6.2478272306
 Cd        -4.3308002626        4.8127262164       -0.6762739309
 Cd        -1.8326132452        3.6694977750        3.1598212265
 Cd         0.4939817277        3.1637060931        6.7202662426
 Cd        -4.5980154021        1.9988297698       -4.0880170010
 Cd        -2.1651194586        1.0165564496       -0.4536921834
 Cd         0.1376109507       -0.0659106884        3.1336818174
 Cd         2.6419074521       -0.6636939286        6.8958319365
 Cd        -4.1515129292       -0.5348426091       -6.9620217917
 Cd        -2.2012490343       -1.8491984656       -3.4894107829
 Cd         0.0359311218       -2.8494155653       -0.0264680683
 Cd         2.4407298775       -3.8224684908        3.5289587884
 Cd         4.5907434619       -4.2169180472        6.5928471603
 Cd        -2.6321953796       -4.5685798778       -6.0773989300
 Cd        -0.3638438279       -6.1221236347       -3.0620735359
 Cd         1.9882729153       -6.8506852632       -0.0376753302
 Cd         4.3604701588       -7.5063202656        3.0981086138
 Cd        -2.4313710890        8.2839908015       -1.2010761441
 Cd         0.1210964618        6.7915494583        2.0748938605
 Cd         2.2602783261        6.3879934074        5.9824457591
 Cd        -2.2743307721        5.5403016700       -4.1096429978
 Cd         0.1552258413        4.6164378819       -0.9814446932
 Cd         2.6173372932        3.7540356816        2.4616712460
 Cd         4.3934694910        2.5024270436        5.6448470259
 Cd        -2.3839877703        3.0961459608       -7.5397423510
 Cd        -0.1308699873        1.7716472388       -4.3458913396
 Cd         2.1522040622        0.8595996928       -0.9600505658
 Cd         4.3027041934       -0.4425155449        2.5248589789
 Cd         6.4943132815       -0.6514444341        6.0110723312
 Cd         0.4032906214       -0.5920449882       -7.0625722312
 Cd         2.1504065746       -1.8410095193       -3.9631978812
 Cd         4.1282053355       -2.9764966895       -0.5499119195
 Cd         6.9189885741       -3.8001688729        2.8840486736
 Cd         1.0693858855       -4.7693596381       -6.7909688629
 Cd         3.6529341800       -5.7620820022       -3.6150795142
 Cd         5.7341856059       -6.5625995016       -0.3323817960
 Cd         2.4532379782        8.1225833618       -1.1556872380
 Cd         4.4025673150        7.2904811152        1.7928276254
 Cd         2.3800547108        5.2453457502       -4.8107637235
 Cd         4.8184663347        4.7191125514       -1.4277792117
 Cd         6.7589411702        3.8390778732        2.0295448973
 Cd         2.6210634084        2.7844913241       -7.7035228004
 Cd         4.8495943395        1.7843685348       -4.5225056138
 Cd         6.7261500983        1.0662237140       -0.9642295531
 Cd         8.8881450478        0.4141445330        2.4369093904
 Cd         4.3615782352       -0.9213178924       -7.7328888960
 Cd         6.7438649008       -1.9767569930       -4.2031112584
 Cd         8.5272445020       -2.6218905711       -0.2551455218
 Se        -9.0557725106        0.2424574140        0.9180313808
 Se        -6.3745872764       -0.6570220647        4.4225742627
 Se        -3.9358548519       -1.3506397678        8.2925868769
 Se        -6.5830028390       -3.7408669090        1.3890860046
 Se        -4.5802302415       -4.2716541219        4.8585926421
 Se        -4.6110671623       -7.7792240778        1.5343213278
 Se        -6.6407812351        3.9866809498        0.4586064126
 Se        -4.0705866514        2.6241591830        3.9150270775
 Se        -1.6315747320        2.0143859544        7.9219454430
 Se        -6.7106235468        0.9827493806       -3.1628202938
 Se        -4.4077684895       -0.2106461950        0.3970531668
 Se        -2.0534879979       -1.1190641497        4.2604482105
 Se         0.4069246601       -1.5676855049        8.0617057342
 Se        -4.4126107232       -3.1307459794       -2.8028288282
 Se        -2.2371864822       -4.0884616040        0.9473336128
 Se         0.1541797359       -4.8148952714        4.4843326207
 Se        -2.4147106009       -7.4199706225       -2.0529393442
 Se        -0.0662571417       -7.8800811154        1.3078284855
 Se        -4.5519687636        7.5920037884       -0.0122560791
 Se        -1.8482840651        6.3647212661        3.5390459072
 Se         0.4006735392        5.8241498358        7.5878867146
 Se        -4.4655945585        4.5529209660       -3.3484418515
 Se        -2.0798083538        3.7153034916        0.3451575142
 Se         0.4973892782        2.6967113851        3.7286137790
 Se         2.7724753484        1.9958260876        7.6298945277
 Se        -4.6126224962        2.0736182894       -6.9031574659
 Se        -2.2770211290        0.8531533747       -3.1284312065
 Se         0.0138865169       -0.1636477002        0.3858468104
 Se         2.3115473387       -1.3198431962        4.0017354986
 Se         4.8624545925       -1.8855864388        7.7371297607
 Se        -2.0700877949       -1.9675257511       -6.4603372509
 Se        -0.0447057629       -3.1582708631       -2.8090856920
 Se         2.2343306950       -4.2299664240        0.7817840723
 Se         4.8342987615       -4.9516929708        4.0974643468
 Se        -0.7556003326       -6.2829108386       -5.8406699955
 Se         1.9243057511       -7.4784768035       -2.6074198353
 Se         4.2543989663       -8.3809591814        0.7363809319
 Se         0.0386925703        7.3677075300       -0.4939635450
 Se         2.3791568525        6.5289221229        3.1400383851
 Se         0.0465974103        4.4270318221       -3.5936563407
 Se         2.5167269427        3.6273521599       -0.0581806204
 Se         4.7705604635        2.4670139639        3.1233546104
 Se         0.0435933033        1.9323944164       -6.9695738842
 Se         2.2733127965        0.7623703678       -3.6584263160
 Se         4.3816175435       -0.2841549253       -0.0177063702
 Se         6.9670500347       -1.1290204494        3.5565582379
 Se         2.2410869402       -2.2702007814       -6.6798205275
 Se         4.3723294721       -3.1971869108       -3.2130677403
 Se         6.4331938555       -4.1098532443        0.4136420186
 Se         4.8503033307        7.5509093293       -0.7463548497
 Se         4.8776288797        4.5477652435       -4.0091414448
 Se         7.0830986217        3.5950723552       -0.6434567968
 Se         4.7810064642        1.5273410534       -7.5566303287
 Se         6.9188050062        0.6130038217       -3.7081238627
 Se         9.1066871843       -0.0609359671       -0.0919647969
  C         6.9955771113       -6.9586634775       -2.8583426301
  H         7.7780160969       -7.1271873265       -3.6573399650
  O         5.8389952916       -6.4652991204       -3.1445809228
  O         7.2920676004       -7.2683568805       -1.6893132711
  C         3.3939431960       -6.2668607509       -6.9513074648
  H         4.3245440932       -6.8689211647       -7.0591687882
  O         3.0202466073       -5.7860511295       -5.7843136273
  O         2.6220129789       -6.1746538788       -7.9242101403
  C         6.3116555909       -2.9071154185       -7.4921130606
  H         7.0978863851       -3.7212906458       -7.4285512081
  O         6.0096715894       -2.3219711192       -6.3505932827
  O         5.9403243477       -2.4750431756       -8.6116316973
  C         8.9837561036       -3.3697375837       -3.4349055328
  H         9.9249943929       -3.8864043165       -3.1840078659
  O         8.5659407989       -3.4209184445       -4.6048832464
  O         8.2714489672       -2.6971151254       -2.5207012617
  C         9.7902109758       -4.6282247391        2.1768529346
  H        10.6284324694       -5.3337138149        2.3552924638
  O         9.7484501532       -4.1824896055        0.9942458601
  O         9.0219926648       -4.5705851174        3.1873629795
  C        -2.8252708508       -8.8894178348        5.3653894160
  H        -2.3915771747       -9.8892286280        5.4446685031
  O        -1.9808601030       -7.9304545651        5.0436955975
  O        -4.0908415257       -8.7280019527        5.4030844137
  C         3.0047406823       -8.6887063298        5.2919739424
  H         2.6853413808       -9.0312323512        6.2714246943
  O         1.9985977812       -8.3553887881        4.5599054594
  O         4.2197147413       -8.6069092298        4.9235206312
  C         2.8732291572       -5.7090624943        8.2322507888
  H         2.4095730423       -6.3582442170        8.9295273658
  O         2.2236878889       -4.8031284854        7.6183804854
  O         4.1525405945       -5.8988692439        8.1468427445
  C        -2.5324052264       -5.9090323801        8.5168983878
  H        -2.0058427467       -6.7599986745        9.0204193621
  O        -1.9189018681       -5.2527647032        7.5983339134
  O        -3.6521974131       -5.4981014961        8.8936623702
  C        -6.8661340661        2.3082426882        7.3884767521
  H        -7.2433530482        3.2983326111        7.3747512577
  O        -5.6189307919        2.1553364867        7.5292857639
  O        -7.6694328727        1.3672322100        7.2032576312
  C        -4.1128935570        6.2776012356        7.2258109093
  H        -5.2184092536        6.2949225170        7.4003980339
  O        -3.5215502414        5.2331222329        6.7794929280
  O        -3.5956064510        7.4679880815        7.3184340370
  C        -6.2584500423        7.1467273309        4.0778865765
  H        -7.2018864753        7.1620259062        4.6862261037
  O        -5.8042352338        6.0508881806        3.6277903665
  O        -5.6141473350        8.2227071687        3.8530055117
  C        -9.2670155991        2.9624473135        4.4549609073
  H        -9.7760873251        3.8307467380        4.7753730710
  O        -8.0580447847        3.0137717908        4.1153681461
  O       -10.0869615960        1.9755230626        4.3964141791
  C        -9.5997958208       -3.5202239981        4.2555074891
  H       -10.6284324694       -3.6062117458        4.7363993397
  O        -9.3836198173       -2.7271085544        3.2939504316
  O        -8.6749593009       -4.3055307223        4.7674147240
  C        -5.4063829718       -6.0836320759       -6.1576393485
  H        -6.0390997038       -6.5934387315       -6.8768176703
  O        -5.3157147411       -6.5042627408       -4.9638375967
  O        -4.7997118332       -5.0931497246       -6.6842330004
  C        -7.4812021438       -7.2683192216       -1.8337008205
  H        -7.8430239833       -7.7214409635       -2.7403108931
  O        -6.3847231004       -6.5596142310       -1.8855223803
  O        -8.0870004405       -7.4369608581       -0.7449951352
  C        -9.2637717352       -3.4248031045       -2.1287629167
  H        -9.5435102925       -4.0726156799       -2.9624854104
  O        -8.1685743898       -2.7562864935       -2.2769679175
  O        -9.8293124780       -3.4993302663       -1.0042472880
  C        -6.7198117275       -1.5155721631       -7.0057360974
  H        -7.7266400310       -1.9701098143       -7.1795729881
  O        -6.3208037730       -1.2812141421       -5.7891801227
  O        -6.0546670581       -1.2647410752       -8.0219575549
  C        -1.9610306020        5.6962737072       -7.4797868569
  H        -1.8068881661        6.7616764611       -7.4798700689
  O        -2.4613788677        5.1953402046       -6.4147373301
  O        -1.7592038190        5.0404242691       -8.5376948407
  C        -1.7153677193        9.0065729983       -3.7807068554
  H        -1.3518565997        9.2891789052       -4.8285272378
  O        -1.7735635219        7.7204009534       -3.5311974415
  O        -1.9589811591        9.8892286280       -2.9296575010
  C         2.5176986766        8.6527359013       -4.1276241396
  H         2.7356319561        9.0838176512       -5.0545617483
  O         2.0941304229        7.4607563111       -4.0382054964
  O         2.6632020791        9.4136986823       -3.1567247192
  C         1.7405814703        5.3615037054       -8.2026998584
  H         1.4592813282        6.4433815072       -8.3446733349
  O         2.2712544771        5.0744229803       -7.0359036782
  O         1.5374971892        4.4786315137       -9.0204193621
  C         9.4791869119        2.6134878200        3.9079418032
  H         9.6264681644        3.4611325178        4.5867541287
  O         8.5294682966        2.7206869475        3.0468687327
  O        10.1884170796        1.5361363159        4.0354546634
  C         6.6320899766        7.0427804887        3.3240585285
  H         7.5183451153        7.1103565644        4.0025867163
  O         6.4921259472        6.1579139584        2.4473334656
  O         5.8014508194        7.8970951585        3.5804466065
  C         4.7468288793        5.8510846562        6.9391041765
  H         5.6837062732        5.7110173508        7.4566454645
  O         4.3315486404        4.9881730889        6.0840680113
  O         4.1390624477        6.9214380767        7.1338855679
  C         7.5642974957        1.7429307679        7.1823006621
  H         8.1116275708        2.6102062210        7.6466333920
  O         6.7423080014        2.0330978891        6.2208765696
  O         7.8434776238        0.5800715711        7.5931108165
     227
 i =        1, time =        1.000, E =       -11.0722605228
 Cd        -8.6193437809        0.4796420694        3.4771647247
 Cd        -5.8715234057       -0.2572015611        7.1144013336
 Cd        -8.4082160322       -2.1541276666        0.3852394016
 Cd        -6.8927344759       -3.2918135452        3.9610960921
 Cd        -3.6901783029       -3.7003803222        7.3823807057
 Cd        -6.4419698449       -6.2357547648        0.4642776481
 Cd        -4.3123541383       -6.8296187586        3.9052083685
 Cd        -6.1163747210        3.8609284969        2.9055515241
 Cd        -3.6066109669        2.8812239248        6.5904064922
 Cd        -6.7534246872        1.1872318588       -0.3192208737
 Cd        -4.0444088486        0.0755176287        3.0501824736
 Cd        -1.7741887892       -0.3125673108        6.8335736797
 Cd        -6.3660874321       -1.4624213647       -3.4401707091
 Cd        -4.3613424330       -3.1217887538       -0.1745569855
 Cd        -2.2426107877       -3.6215621673        3.6336070448
 Cd         0.1787087700       -3.9615860615        7.0369328116
 Cd        -4.2693607141       -5.9882311021       -2.9988627287
 Cd        -2.2486974217       -6.7966236507        0.6791743916
 Cd         0.0677904376       -7.3029828464        3.8542263352
 Cd        -4.0802922827        7.4119360292        2.4182556789
 Cd        -1.6107717604        6.4879246003        6.2509652638
 Cd        -4.3325249130        4.8128042516       -0.6769490803
 Cd        -1.8303923960        3.6695899516        3.1589457680
 Cd         0.4898042723        3.1633438983        6.7205282297
 Cd        -4.5996315276        2.0001038835       -4.0890032744
 Cd        -2.1628863000        1.0181199252       -0.4517524525
 Cd         0.1384291358       -0.0681719809        3.1344103503
 Cd         2.6424449935       -0.6635627641        6.8958986669
 Cd        -4.1540710732       -0.5351525182       -6.9611291453
 Cd        -2.2031752337       -1.8491033748       -3.4900233570
 Cd         0.0358079448       -2.8474791780       -0.0250973642
 Cd         2.4397105726       -3.8215465359        3.5304672211
 Cd         4.5938398749       -4.2151931085        6.5946745194
 Cd        -2.6316850234       -4.5699788484       -6.0785434009
 Cd        -0.3609696316       -6.1210591260       -3.0631283861
 Cd         1.9864044674       -6.8523417080       -0.0374620698
 Cd         4.3578703074       -7.5050531444        3.0974021244
 Cd        -2.4320593551        8.2867251404       -1.2003479883
 Cd         0.1211452285        6.7911384668        2.0747952953
 Cd         2.2580911624        6.3879367201        5.9826486167
 Cd        -2.2740409552        5.5405408383       -4.1121191625
 Cd         0.1544599025        4.6148622317       -0.9823405170
 Cd         2.6165226343        3.7533511540        2.4610230985
 Cd         4.3939170367        2.5015253235        5.6446899184
 Cd        -2.3864798345        3.0937127925       -7.5398928856
 Cd        -0.1312637065        1.7709170639       -4.3474187774
 Cd         2.1531672533        0.8600193996       -0.9632009228
 Cd         4.3034627903       -0.4402607864        2.5248072702
 Cd         6.4920236509       -0.6517858045        6.0104833467
 Cd         0.4042654404       -0.5927784482       -7.0621297118
 Cd         2.1513102213       -1.8410922531       -3.9633305905
 Cd         4.1299702946       -2.9780218126       -0.5482309234
 Cd         6.9198191562       -3.7969795542        2.8855269733
 Cd         1.0695481895       -4.7692022430       -6.7906711285
 Cd         3.6506236501       -5.7625142438       -3.6177166350
 Cd         5.7329646370       -6.5640252215       -0.3327744571
 Cd         2.4551236655        8.1222962859       -1.1566077429
 Cd         4.4053414717        7.2897919688        1.7948269603
 Cd         2.3804051613        5.2452070626       -4.8087244019
 Cd         4.8189812801        4.7184524967       -1.4284089566
 Cd         6.7582288233        3.8401487814        2.0311417433
 Cd         2.6218033966        2.7828993260       -7.7033770382
 Cd         4.8493468390        1.7846648530       -4.5231277692
 Cd         6.7277161575        1.0650195508       -0.9631068759
 Cd         8.8867412208        0.4155756333        2.4347926008
 Cd         4.3617997462       -0.9226064948       -7.7309228166
 Cd         6.7427744416       -1.9756146432       -4.2012703432
 Cd         8.5291287131       -2.6208023334       -0.2527907776
 Se        -9.0547722440        0.2428717678        0.9183226444
 Se        -6.3727615316       -0.6564894878        4.4183066343
 Se        -3.9345389446       -1.3489459495        8.2965154981
 Se        -6.5831260198       -3.7425294129        1.3880852156
 Se        -4.5790774393       -4.2748346811        4.8597267337
 Se        -4.6122311142       -7.7765749434        1.5328429534
 Se        -6.6422588114        3.9855638311        0.4577156344
 Se        -4.0719619054        2.6208497664        3.9142896578
 Se        -1.6333289261        2.0117347828        7.9251116180
 Se        -6.7116589333        0.9828853377       -3.1654725811
 Se        -4.4070658706       -0.2111866552        0.3948950812
 Se        -2.0531390000       -1.1153519969        4.2593815090
 Se         0.4060036365       -1.5661565861        8.0650697079
 Se        -4.4160714496       -3.1299813755       -2.8046623186
 Se        -2.2374498313       -4.0915878883        0.9472049905
 Se         0.1530623594       -4.8127580465        4.4857999275
 Se        -2.4165674773       -7.4206027311       -2.0539538992
 Se        -0.0669653437       -7.8791242296        1.3095411009
 Se        -4.5521161508        7.5948392586       -0.0125875054
 Se        -1.8467464895        6.3632970746        3.5400630634
 Se         0.4037014608        5.8261676288        7.5858567302
 Se        -4.4660204199        4.5539594484       -3.3489527346
 Se        -2.0809848920        3.7152525998        0.3431765273
 Se         0.4982224391        2.6970102061        3.7286720643
 Se         2.7717958241        1.9958694246        7.6262020508
 Se        -4.6131671634        2.0747700586       -6.9049082440
 Se        -2.2788853214        0.8535221594       -3.1260981762
 Se         0.0145505442       -0.1632207852        0.3853953172
 Se         2.3129699758       -1.3189362566        3.9989996994
 Se         4.8631513200       -1.8843041546        7.7353986867
 Se        -2.0702174589       -1.9664145388       -6.4603773208
 Se        -0.0447313400       -3.1599224476       -2.8087904944
 Se         2.2323295879       -4.2314553327        0.7809355819
 Se         4.8362378093       -4.9530859613        4.0967213053
 Se        -0.7551453889       -6.2848036186       -5.8413945741
 Se         1.9250117880       -7.4790343993       -2.6076227703
 Se         4.2593690242       -8.3791694258        0.7364129434
 Se         0.0356477352        7.3686166610       -0.4913288765
 Se         2.3809103325        6.5252189560        3.1424574395
 Se         0.0437160220        4.4288293454       -3.5939949810
 Se         2.5163862533        3.6274416885       -0.0568198988
 Se         4.7726932784        2.4661925718        3.1253355947
 Se         0.0455234219        1.9299554266       -6.9704963342
 Se         2.2758206040        0.7648302300       -3.6570650254
 Se         4.3766460809       -0.2853685974       -0.0177914179
 Se         6.9677138855       -1.1294340371        3.5582507155
 Se         2.2369859874       -2.2681672212       -6.6837648628
 Se         4.3737290301       -3.1974926467       -3.2156579539
 Se         6.4331578099       -4.1116831270        0.4129862692
 Se         4.8515229305        7.5524189538       -0.7459102866
 Se         4.8774769881        4.5489820119       -4.0122201529
 Se         7.0855819108        3.5934490316       -0.6428968388
 Se         4.7816729907        1.5264126793       -7.5555472172
 Se         6.9185403755        0.6112260648       -3.7073700187
 Se         9.1068612814       -0.0627005431       -0.0923201259
  C         6.9966774449       -6.9498350705       -2.8612697817
  H         7.7649322095       -7.1224747738       -3.6684216540
  O         5.8439558628       -6.4672052518       -3.1400945956
  O         7.2884660058       -7.2741043156       -1.6935517523
  C         3.3950680039       -6.2673034865       -6.9491783195
  H         4.3444066225       -6.8936096686       -7.0753272229
  O         3.0188221366       -5.7908701892       -5.7819424786
  O         2.6176877666       -6.1688898884       -7.9239688625
  C         6.3106278493       -2.9078523195       -7.4910500036
  H         7.1299137504       -3.7048862282       -7.4466889051
  O         6.0085396845       -2.3181770798       -6.3473896905
  O         5.9393371622       -2.4742188239       -8.6124557214
  C         8.9774443157       -3.3708817255       -3.4296468519
  H         9.9250180562       -3.8774829974       -3.1826003730
  O         8.5682420598       -3.4148480317       -4.6046120959
  O         8.2717107249       -2.6966732224       -2.5200059469
  C         9.7980708327       -4.6251994060        2.1809965785
  H        10.6408655401       -5.3318691344        2.3887999993
  O         9.7470523191       -4.1804746214        0.9925686995
  O         9.0285294408       -4.5681023450        3.1870331105
  C        -2.8217296099       -8.8884342562        5.3598597577
  H        -2.4154187803       -9.9024293192        5.4343946394
  O        -1.9847225175       -7.9306385374        5.0423167699
  O        -4.0904654497       -8.7274159983        5.4043985113
  C         2.9969208187       -8.6916184413        5.2874272650
  H         2.6967725338       -9.0398269484        6.2934215078
  O         1.9992970167       -8.3578448355        4.5594051088
  O         4.2233782950       -8.6005226011        4.9153934311
  C         2.8793022736       -5.7053272453        8.2324247001
  H         2.3955873073       -6.3773024893        8.9303283437
  O         2.2189383224       -4.8088077695        7.6163273192
  O         4.1498450542       -5.9034458478        8.1535683469
  C        -2.5347122942       -5.9173483245        8.5220021279
  H        -2.0052498086       -6.7390725628        9.0096019785
  O        -1.9214179303       -5.2583105193        7.5983229726
  O        -3.6522432174       -5.5083794679        8.8927375354
  C        -6.8630672147        2.3027065905        7.3892016033
  H        -7.2086193538        3.3071349018        7.3885257928
  O        -5.6212715951        2.1591016327        7.5336818033
  O        -7.6695273332        1.3702417029        7.1999445371
  C        -4.1169976944        6.2828019915        7.2281881147
  H        -5.2418933127        6.2896177269        7.3832000201
  O        -3.5266450836        5.2290270748        6.7738185792
  O        -3.5910641590        7.4673221333        7.3180437215
  C        -6.2567413958        7.1462405224        4.0780939027
  H        -7.2111390447        7.1649409639        4.6689854642
  O        -5.8090394716        6.0478272409        3.6278528251
  O        -5.6127217142        8.2207012176        3.8486834014
  C        -9.2742172388        2.9617551878        4.4604781524
  H        -9.7855372140        3.8838940690        4.7760086716
  O        -8.0588057582        3.0119030662        4.1192642427
  O       -10.0810670810        1.9792318510        4.3921750531
  C        -9.6032777158       -3.5282190858        4.2551658212
  H       -10.5971720209       -3.6001750875        4.7566807035
  O        -9.3832602477       -2.7227888790        3.2942629354
  O        -8.6785417263       -4.3016484806        4.7629543106
  C        -5.4081382987       -6.0792321653       -6.1561926629
  H        -6.0546960796       -6.5859836395       -6.8890942905
  O        -5.3110141324       -6.5040784217       -4.9651581415
  O        -4.7983663792       -5.0927345404       -6.6852965748
  C        -7.4874926337       -7.2705704874       -1.8347946127
  H        -7.8388434959       -7.7173330376       -2.7530342297
  O        -6.3887288197       -6.5549791993       -1.8842765239
  O        -8.0716684377       -7.4408946399       -0.7458129878
  C        -9.2562758219       -3.4269990107       -2.1219750952
  H        -9.5270787848       -4.0663584857       -2.9594189931
  O        -8.1698119530       -2.7553971825       -2.2727100308
  O        -9.8242056652       -3.4939516124       -1.0091927703
  C        -6.7207090530       -1.5101459318       -7.0045990145
  H        -7.7450574417       -1.9674181007       -7.1698505571
  O        -6.3198201615       -1.2781065954       -5.7989842730
  O        -6.0632700758       -1.2634528048       -8.0154964420
  C        -1.9629072470        5.6954900614       -7.4853168857
  H        -1.7770888886        6.7764005651       -7.4923242406
  O        -2.4611785393        5.1866940384       -6.4086896636
  O        -1.7564179932        5.0403765534       -8.5283337539
  C        -1.7168929658        9.0075090161       -3.7839140051
  H        -1.3493405476        9.2660238074       -4.8465614694
  O        -1.7700624306        7.7194402776       -3.5246102643
  O        -1.9637584848        9.8895636617       -2.9408203958
  C         2.5062401075        8.6538876045       -4.1272906078
  H         2.7131102182        9.0638249498       -5.0476060874
  O         2.0944620584        7.4532095062       -4.0307271104
  O         2.6627529574        9.4111514063       -3.1552145025
  C         1.7411586968        5.3672428555       -8.1968671286
  H         1.4358383610        6.4416008070       -8.3632925476
  O         2.2781621826        5.0765822704       -7.0406667732
  O         1.5312539005        4.4833308145       -9.0175585243
  C         9.4768847506        2.6096278404        3.8999990337
  H         9.6131090334        3.4671477718        4.5843902861
  O         8.5279742081        2.7173524562        3.0491632211
  O        10.1885257815        1.5401331474        4.0330733396
  C         6.6326610381        7.0383066107        3.3282023403
  H         7.5082674956        7.1289998248        4.0070788575
  O         6.4944705578        6.1604002960        2.4465515234
  O         5.7954597377        7.9029982783        3.5812636123
  C         4.7447667605        5.8524837595        6.9354002462
  H         5.7085862008        5.7040540943        7.4370666698
  O         4.3285730113        4.9885402614        6.0815203852
  O         4.1456257756        6.9223972060        7.1371427349
  C         7.5603381769        1.7452808705        7.1878852119
  H         8.1158840311        2.6116602203        7.6593692779
  O         6.7458476723        2.0302392349        6.2244458400
  O         7.8434949007        0.5821364719        7.5895097339
     227
 i =        2, time =        2.000, E =       -11.0869190983
 Cd        -8.6170024060        0.4783166483        3.4767465714
 Cd        -5.8707151214       -0.2576813475        7.1136690205
 Cd        -8.4088675900       -2.1551470861        0.3836927381
 Cd        -6.8897131443       -3.2939531758        3.9621474871