     227
 i =        0, time =        0.000, E =        -2.4679635187
 Cd        -8.6216924880        0.4810107428        3.4775887729
 Cd        -5.8723589632       -0.2566559957        7.1151373767
 Cd        -8.4076147924       -2.1531404527        0.3867588804
 Cd        -6.8957642261       -3.2896665849        3.9600318291
 Cd        -3.6930098048       -3.6992689615        7.3819491709
 Cd        -6.4429261463       -6.2347087238        0.4622469067
 Cd        -4.3123952394       -6.8285875372        3.9039095072
 Cd        -6.1141073353        3.8626235599        2.9066844924
 Cd        -3.6048790416        2.8797284733        6.5917986711
 Cd        -6.7531255596        1.1841266196       -0.3182182747
 Cd        -4.0437606329        0.0729837467        3.0511954168
 Cd        -1.7753257667       -0.3121054857        6.8316599018
 Cd        -6.3661028473       -1.4630135273       -3.4383357626
 Cd        -4.3602814436       -3.1214810613       -0.1759283953
 Cd        -2.2424276819       -3.6242998489        3.6335413818
 Cd         0.1757294635       -3.9625201566        7.0364714760
 Cd        -4.2692200317       -5.9860442556       -3.0005266361
 Cd        -2.2482225396       -6.7972628816        0.6786391664
 Cd         0.0669003827       -7.3030327295        3.8545421700
 Cd        -4.0792754193        7.4105475565        2.4175118797
 Cd        -1.6116442377        6.4880648240        6.2478272306
 Cd        -4.3308002626        4.8127262164       -0.6762739309
 Cd        -1.8326132452        3.6694977750        3.1598212265
 Cd         0.4939817277        3.1637060931        6.7202662426
 Cd        -4.5980154021        1.9988297698       -4.0880170010
 Cd        -2.1651194586        1.0165564496       -0.4536921834
 Cd         0.1376109507       -0.0659106884        3.1336818174
 Cd         2.6419074521       -0.6636939286        6.8958319365
 Cd        -4.1515129292       -0.5348426091       -6.9620217917
 Cd        -2.2012490343       -1.8491984656       -3.4894107829
 Cd         0.0359311218       -2.8494155653       -0.0264680683
 Cd         2.4407298775       -3.8224684908        3.5289587884
 Cd         4.5907434619       -4.2169180472        6.5928471603
 Cd        -2.6321953796       -4.5685798778       -6.0773989300
 Cd        -0.3638438279       -6.1221236347       -3.0620735359
 Cd         1.9882729153       -6.8506852632       -0.0376753302
 Cd         4.3604701588       -7.5063202656        3.0981086138
 Cd        -2.4313710890        8.2839908015       -1.2010761441
 Cd         0.1210964618        6.7915494583        2.0748938605
 Cd         2.2602783261        6.3879934074        5.9824457591
 Cd        -2.2743307721        5.5403016700       -4.1096429978
 Cd         0.1552258413        4.6164378819       -0.9814446932
 Cd         2.6173372932        3.7540356816        2.4616712460
 Cd         4.3934694910        2.5024270436        5.6448470259
 Cd        -2.3839877703        3.0961459608       -7.5397423510
 Cd        -0.1308699873        1.7716472388       -4.3458913396
 Cd         2.1522040622        0.8595996928       -0.9600505658
 Cd         4.3027041934       -0.4425155449        2.5248589789
 Cd         6.4943132815       -0.6514444341        6.0110723312
 Cd         0.4032906214       -0.5920449882       -7.0625722312
 Cd         2.1504065746       -1.8410095193       -3.9631978812
 Cd         4.1282053355       -2.9764966895       -0.5499119195
 Cd         6.9189885741       -3.8001688729        2.8840486736
 Cd         1.0693858855       -4.7693596381       -6.7909688629
 Cd         3.6529341800       -5.7620820022       -3.6150795142
 Cd         5.7341856059       -6.5625995016       -0.3323817960
 Cd         2.4532379782        8.1225833618       -1.1556872380
 Cd         4.4025673150        7.2904811152        1.7928276254
 Cd         2.3800547108        5.2453457502       -4.8107637235
 Cd         4.8184663347        4.7191125514       -1.4277792117
 Cd         6.7589411702        3.8390778732        2.0295448973
 Cd         2.6210634084        2.7844913241       -7.7035228004
 Cd         4.8495943395        1.7843685348       -4.5225056138
 Cd         6.7261500983        1.0662237140       -0.9642295531
 Cd         8.8881450478        0.4141445330        2.4369093904
 Cd         4.3615782352       -0.9213178924       -7.7328888960
 Cd         6.7438649008       -1.9767569930       -4.2031112584
 Cd         8.5272445020       -2.6218905711       -0.2551455218
 Se        -9.0557725106        0.2424574140        0.9180313808
 Se        -6.3745872764       -0.6570220647        4.4225742627
 Se        -3.9358548519       -1.3506397678        8.2925868769
 Se        -6.5830028390       -3.7408669090        1.3890860046
 Se        -4.5802302415       -4.2716541219        4.8585926421
 Se        -4.6110671623       -7.7792240778        1.5343213278
 Se        -6.6407812351        3.9866809498        0.4586064126
 Se        -4.0705866514        2.6241591830        3.9150270775
 Se        -1.6315747320        2.0143859544        7.9219454430
 Se        -6.7106235468        0.9827493806       -3.1628202938
 Se        -4.4077684895       -0.2106461950        0.3970531668
 Se        -2.0534879979       -1.1190641497        4.2604482105
 Se         0.4069246601       -1.5676855049        8.0617057342
 Se        -4.4126107232       -3.1307459794       -2.8028288282
 Se        -2.2371864822       -4.0884616040        0.9473336128
 Se         0.1541797359       -4.8148952714        4.4843326207
 Se        -2.4147106009       -7.4199706225       -2.0529393442
 Se        -0.0662571417       -7.8800811154        1.3078284855
 Se        -4.5519687636        7.5920037884       -0.0122560791
 Se        -1.8482840651        6.3647212661        3.5390459072
 Se         0.4006735392        5.8241498358        7.5878867146
 Se        -4.4655945585        4.5529209660       -3.3484418515
 Se        -2.0798083538        3.7153034916        0.3451575142
 Se         0.4973892782        2.6967113851        3.7286137790
 Se         2.7724753484        1.9958260876        7.6298945277
 Se        -4.6126224962        2.0736182894       -6.9031574659
 Se        -2.2770211290        0.8531533747       -3.1284312065
 Se         0.0138865169       -0.1636477002        0.3858468104
 Se         2.3115473387       -1.3198431962        4.0017354986
 Se         4.8624545925       -1.8855864388        7.7371297607
 Se        -2.0700877949       -1.9675257511       -6.4603372509
 Se        -0.0447057629       -3.1582708631       -2.8090856920
 Se         2.2343306950       -4.2299664240        0.7817840723
 Se         4.8342987615       -4.9516929708        4.0974643468
 Se        -0.7556003326       -6.2829108386       -5.8406699955
 Se         1.9243057511       -7.4784768035       -2.6074198353
 Se         4.2543989663       -8.3809591814        0.7363809319
 Se         0.0386925703        7.3677075300       -0.4939635450
 Se         2.3791568525        6.5289221229        3.1400383851
 Se         0.0465974103        4.4270318221       -3.5936563407
 Se         2.5167269427        3.6273521599       -0.0581806204
 Se         4.7705604635        2.4670139639        3.1233546104
 Se         0.0435933033        1.9323944164       -6.9695738842
 Se         2.2733127965        0.7623703678       -3.6584263160
 Se         4.3816175435       -0.2841549253       -0.0177063702
 Se         6.9670500347       -1.1290204494        3.5565582379
 Se         2.2410869402       -2.2702007814       -6.6798205275
 Se         4.3723294721       -3.1971869108       -3.2130677403
 Se         6.4331938555       -4.1098532443        0.4136420186
 Se         4.8503033307        7.5509093293       -0.7463548497
 Se         4.8776288797        4.5477652435       -4.0091414448
 Se         7.0830986217        3.5950723552       -0.6434567968
 Se         4.7810064642        1.5273410534       -7.5566303287
 Se         6.9188050062        0.6130038217       -3.7081238627
 Se         9.1066871843       -0.0609359671       -0.0919647969
  C         6.9955771113       -6.9586634775       -2.8583426301
  H         7.7780160969       -7.1271873265       -3.6573399650
  O         5.8389952916       -6.4652991204       -3.1445809228
  O         7.2920676004       -7.2683568805       -1.6893132711
  C         3.3939431960       -6.2668607509       -6.9513074648
  H         4.3245440932       -6.8689211647       -7.0591687882
  O         3.0202466073       -5.7860511295       -5.7843136273
  O         2.6220129789       -6.1746538788       -7.9242101403
  C         6.3116555909       -2.9071154185       -7.4921130606
  H         7.0978863851       -3.7212906458       -7.4285512081
  O         6.0096715894       -2.3219711192       -6.3505932827
  O         5.9403243477       -2.4750431756       -8.6116316973
  C         8.9837561036       -3.3697375837       -3.4349055328
  H         9.9249943929       -3.8864043165       -3.1840078659
  O         8.5659407989       -3.4209184445       -4.6048832464
  O         8.2714489672       -2.6971151254       -2.5207012617
  C         9.7902109758       -4.6282247391        2.1768529346
  H        10.6284324694       -5.3337138149        2.3552924638
  O         9.7484501532       -4.1824896055        0.9942458601
  O         9.0219926648       -4.5705851174        3.1873629795
  C        -2.8252708508       -8.8894178348        5.3653894160
  H        -2.3915771747       -9.8892286280        5.4446685031
  O        -1.9808601030       -7.9304545651        5.0436955975
  O        -4.0908415257       -8.7280019527        5.4030844137
  C         3.0047406823       -8.6887063298        5.2919739424
  H         2.6853413808       -9.0312323512        6.2714246943
  O         1.9985977812       -8.3553887881        4.5599054594
  O         4.2197147413       -8.6069092298        4.9235206312
  C         2.8732291572       -5.7090624943        8.2322507888
  H         2.4095730423       -6.3582442170        8.9295273658
  O         2.2236878889       -4.8031284854        7.6183804854
  O         4.1525405945       -5.8988692439        8.1468427445
  C        -2.5324052264       -5.9090323801        8.5168983878
  H        -2.0058427467       -6.7599986745        9.0204193621
  O        -1.9189018681       -5.2527647032        7.5983339134
  O        -3.6521974131       -5.4981014961        8.8936623702
  C        -6.8661340661        2.3082426882        7.3884767521
  H        -7.2433530482        3.2983326111        7.3747512577
  O        -5.6189307919        2.1553364867        7.5292857639
  O        -7.6694328727        1.3672322100        7.2032576312
  C        -4.1128935570        6.2776012356        7.2258109093
  H        -5.2184092536        6.2949225170        7.4003980339
  O        -3.5215502414        5.2331222329        6.7794929280
  O        -3.5956064510        7.4679880815        7.3184340370
  C        -6.2584500423        7.1467273309        4.0778865765
  H        -7.2018864753        7.1620259062        4.6862261037
  O        -5.8042352338        6.0508881806        3.6277903665
  O        -5.6141473350        8.2227071687        3.8530055117
  C        -9.2670155991        2.9624473135        4.4549609073
  H        -9.7760873251        3.8307467380        4.7753730710
  O        -8.0580447847        3.0137717908        4.1153681461
  O       -10.0869615960        1.9755230626        4.3964141791
  C        -9.5997958208       -3.5202239981        4.2555074891
  H       -10.6284324694       -3.6062117458        4.7363993397
  O        -9.3836198173       -2.7271085544        3.2939504316
  O        -8.6749593009       -4.3055307223        4.7674147240
  C        -5.4063829718       -6.0836320759       -6.1576393485
  H        -6.0390997038       -6.5934387315       -6.8768176703
  O        -5.3157147411       -6.5042627408       -4.9638375967
  O        -4.7997118332       -5.0931497246       -6.6842330004
  C        -7.4812021438       -7.2683192216       -1.8337008205
  H        -7.8430239833       -7.7214409635       -2.7403108931
  O        -6.3847231004       -6.5596142310       -1.8855223803
  O        -8.0870004405       -7.4369608581       -0.7449951352
  C        -9.2637717352       -3.4248031045       -2.1287629167
  H        -9.5435102925       -4.0726156799       -2.9624854104
  O        -8.1685743898       -2.7562864935       -2.2769679175
  O        -9.8293124780       -3.4993302663       -1.0042472880
  C        -6.7198117275       -1.5155721631       -7.0057360974
  H        -7.7266400310       -1.9701098143       -7.1795729881
  O        -6.3208037730       -1.2812141421       -5.7891801227
  O        -6.0546670581       -1.2647410752       -8.0219575549
  C        -1.9610306020        5.6962737072       -7.4797868569
  H        -1.8068881661        6.7616764611       -7.4798700689
  O        -2.4613788677        5.1953402046       -6.4147373301
  O        -1.7592038190        5.0404242691       -8.5376948407
  C        -1.7153677193        9.0065729983       -3.7807068554
  H        -1.3518565997        9.2891789052       -4.8285272378
  O        -1.7735635219        7.7204009534       -3.5311974415
  O        -1.9589811591        9.8892286280       -2.9296575010
  C         2.5176986766        8.6527359013       -4.1276241396
  H         2.7356319561        9.0838176512       -5.0545617483
  O         2.0941304229        7.4607563111       -4.0382054964
  O         2.6632020791        9.4136986823       -3.1567247192
  C         1.7405814703        5.3615037054       -8.2026998584
  H         1.4592813282        6.4433815072       -8.3446733349
  O         2.2712544771        5.0744229803       -7.0359036782
  O         1.5374971892        4.4786315137       -9.0204193621
  C         9.4791869119        2.6134878200        3.9079418032
  H         9.6264681644        3.4611325178        4.5867541287
  O         8.5294682966        2.7206869475        3.0468687327
  O        10.1884170796        1.5361363159        4.0354546634
  C         6.6320899766        7.0427804887        3.3240585285
  H         7.5183451153        7.1103565644        4.0025867163
  O         6.4921259472        6.1579139584        2.4473334656
  O         5.8014508194        7.8970951585        3.5804466065
  C         4.7468288793        5.8510846562        6.9391041765
  H         5.6837062732        5.7110173508        7.4566454645
  O         4.3315486404        4.9881730889        6.0840680113
  O         4.1390624477        6.9214380767        7.1338855679
  C         7.5642974957        1.7429307679        7.1823006621
  H         8.1116275708        2.6102062210        7.6466333920
  O         6.7423080014        2.0330978891        6.2208765696
  O         7.8434776238        0.5800715711        7.5931108165
     227
 i =        1, time =        1.000, E =        -2.4961678204
 Cd        -8.6193138634        0.4795838849        3.4772659873
 Cd        -5.8717525063       -0.2571399050        7.1143058520
 Cd        -8.4082310968       -2.1542627039        0.3851458072
 Cd        -6.8926487231       -3.2916940769        3.9611136563
 Cd        -3.6901951541       -3.7005132544        7.3822694060
 Cd        -6.4420365266       -6.2357171625        0.4643016065
 Cd        -4.3123221089       -6.8295553087        3.9053859597
 Cd        -6.1164552888        3.8609140792        2.9057701488
 Cd        -3.6067535588        2.8812820805        6.5902770392
 Cd        -6.7534132273        1.1872627745       -0.3192317402
 Cd        -4.0444912723        0.0755156953        3.0501342460
 Cd        -1.7741920847       -0.3127163370        6.8335043792
 Cd        -6.3661361996       -1.4627391561       -3.4401690539
 Cd        -4.3614825695       -3.1217049465       -0.1745149329
 Cd        -2.2425869868       -3.6217309143        3.6335849330
 Cd         0.1785558394       -3.9616553895        7.0369333781
 Cd        -4.2694798199       -5.9880257135       -2.9988679812
 Cd        -2.2489038185       -6.7965140128        0.6790976934
 Cd         0.0677117136       -7.3031279906        3.8542947034
 Cd        -4.0801228065        7.4118992930        2.4184836985
 Cd        -1.6109267555        6.4880870002        6.2508171737
 Cd        -4.3325102614        4.8128626266       -0.6769241766
 Cd        -1.8303888308        3.6696694667        3.1588662879
 Cd         0.4898112835        3.1633851546        6.7204171400
 Cd        -4.5994109409        2.0001296030       -4.0891527895
 Cd        -2.1629489391        1.0182269970       -0.4517357385
 Cd         0.1384074729       -0.0680809740        3.1343801508
 Cd         2.6424381094       -0.6635229725        6.8957780656
 Cd        -4.1540898545       -0.5351167205       -6.9611210944
 Cd        -2.2032041506       -1.8490163461       -3.4901170150
 Cd         0.0357893777       -2.8474907540       -0.0251071156
 Cd         2.4397574733       -3.8217316388        3.5304095664
 Cd         4.5938419194       -4.2152279002        6.5946892037
 Cd        -2.6318020490       -4.5698782591       -6.0785065931
 Cd        -0.3609192652       -6.1209067194       -3.0631563967
 Cd         1.9864813593       -6.8522938636       -0.0374147901
 Cd         4.3579056306       -7.5047525133        3.0973017708
 Cd        -2.4319007285        8.2868214661       -1.2004339148
 Cd         0.1211431652        6.7912135419        2.0745620372
 Cd         2.2581474708        6.3879988116        5.9823602280
 Cd        -2.2739278633        5.5406487471       -4.1121817850
 Cd         0.1544500630        4.6148760423       -0.9822340578
 Cd         2.6164548774        3.7535009610        2.4612423219
 Cd         4.3939535133        2.5015432212        5.6448138057
 Cd        -2.3863198150        3.0936299091       -7.5399667821
 Cd        -0.1312481762        1.7709345434       -4.3473757937
 Cd         2.1531191739        0.8601044411       -0.9631932533
 Cd         4.3035729953       -0.4402291170        2.5249949230
 Cd         6.4920141332       -0.6517045035        6.0106422746
 Cd         0.4040735708       -0.5928145167       -7.0622142400
 Cd         2.1512476950       -1.8411847142       -3.9633187528
 Cd         4.1299994864       -2.9779676566       -0.5482414205
 Cd         6.9198075893       -3.7968934388        2.8857352028
 Cd         1.0695899398       -4.7690079073       -6.7907799204
 Cd         3.6506570967       -5.7624832917       -3.6176274435
 Cd         5.7328165180       -6.5638775906       -0.3327096480
 Cd         2.4549123072        8.1224086983       -1.1566511528
 Cd         4.4054268907        7.2898624687        1.7947899080
 Cd         2.3804005358        5.2451837043       -4.8085882944
 Cd         4.8188516397        4.7185273715       -1.4282377849
 Cd         6.7582555852        3.8402213741        2.0311217027
 Cd         2.6215736510        2.7829828518       -7.7033970628
 Cd         4.8490652470        1.7847899565       -4.5232636986
 Cd         6.7276356753        1.0648216994       -0.9631033904
 Cd         8.8867600290        0.4155568722        2.4348879911
 Cd         4.3617322122       -0.9228970925       -7.7309857951
 Cd         6.7427136429       -1.9756450085       -4.2012159400
 Cd         8.5291825444       -2.6208059408       -0.2527273348
 Se        -9.0551450287        0.2432685989        0.9181224699
 Se        -6.3728296669       -0.6564308386        4.4183904033
 Se        -3.9343648324       -1.3488389983        8.2971191970
 Se        -6.5830858450       -3.7426456873        1.3879240996
 Se        -4.5790852747       -4.2750808132        4.8599463476
 Se        -4.6123198146       -7.7770733070        1.5327176444
 Se        -6.6426546914        3.9855789054        0.4572582855
 Se        -4.0720495005        2.6208019443        3.9144989395
 Se        -1.6331096526        2.0119743163        7.9256865668
 Se        -6.7123413857        0.9833041614       -3.1652678285
 Se        -4.4072078549       -0.2112701949        0.3948274205
 Se        -2.0530075615       -1.1152157858        4.2595308011
 Se         0.4059562544       -1.5661070162        8.0654343763
 Se        -4.4161686502       -3.1302624686       -2.8048777738
 Se        -2.2372631023       -4.0916271401        0.9472451440
 Se         0.1529444291       -4.8126674213        4.4859102231
 Se        -2.4165132420       -7.4211257896       -2.0538658431
 Se        -0.0666818028       -7.8796612217        1.3095822647
 Se        -4.5526985599        7.5949543738       -0.0129938597
 Se        -1.8471538277        6.3634253245        3.5404415289
 Se         0.4037749200        5.8260856196        7.5865942044
 Se        -4.4665277902        4.5541035666       -3.3489668591
 Se        -2.0809609385        3.7151979038        0.3431754466
 Se         0.4983715761        2.6968395323        3.7289220842
 Se         2.7718249050        1.9959078751        7.6266033648
 Se        -4.6136870941        2.0748475164       -6.9049911731
 Se        -2.2789994095        0.8534920440       -3.1261581642
 Se         0.0146891299       -0.1632634417        0.3854661138
 Se         2.3130011014       -1.3186359660        3.9993242483
 Se         4.8633076049       -1.8842587074        7.7358271720
 Se        -2.0699745248       -1.9664799120       -6.4604690218
 Se        -0.0445262647       -3.1601338525       -2.8087776048
 Se         2.2322488608       -4.2315650322        0.7809877004
 Se         4.8363045891       -4.9533294391        4.0967486313
 Se        -0.7551843107       -6.2854281008       -5.8414128509
 Se         1.9250270212       -7.4794382512       -2.6078171630
 Se         4.2592878062       -8.3797725200        0.7361543587
 Se         0.0355293594        7.3687743604       -0.4914348261
 Se         2.3811129572        6.5252038233        3.1429289152
 Se         0.0438667313        4.4288401432       -3.5941712590
 Se         2.5164401322        3.6274133061       -0.0573385380
 Se         4.7729387093        2.4659677115        3.1252102440
 Se         0.0454692529        1.9302927626       -6.9708471166
 Se         2.2760112146        0.7650216460       -3.6571114318
 Se         4.3768280993       -0.2853497945       -0.0181284316
 Se         6.9677913741       -1.1295139433        3.5580183546
 Se         2.2373033011       -2.2685321617       -6.6839086743
 Se         4.3739155435       -3.1974831319       -3.2157622587
 Se         6.4330898080       -4.1117757552        0.4126140777
 Se         4.8522116074        7.5524551625       -0.7461459266
 Se         4.8776412550        4.5490846933       -4.0126347966
 Se         7.0859818035        3.5937978084       -0.6428874113
 Se         4.7823183226        1.5267592903       -7.5555686365
 Se         6.9190775960        0.6111955858       -3.7073601073
 Se         9.1072135635       -0.0625692865       -0.0926027207
  C         6.9966762873       -6.9498287459       -2.8612700747
  H         7.7649322095       -7.1224747738       -3.6684216540
  O         5.8450016003       -6.4677062799       -3.1399646998
  O         7.2903682945       -7.2749873930       -1.6952369175
  C         3.3950708198       -6.2673000243       -6.9491748967
  H         4.3444066225       -6.8936096686       -7.0753272229
  O         3.0190052050       -5.7912597219       -5.7833509935
  O         2.6182476713       -6.1693748125       -7.9243731730
  C         6.3106277269       -2.9078544415       -7.4910428994
  H         7.1299137504       -3.7048862282       -7.4466889051
  O         6.0084695987       -2.3185198625       -6.3486421717
  O         5.9398726850       -2.4747392119       -8.6127492397
  C         8.9774392397       -3.3708830046       -3.4296443647
  H         9.9250180562       -3.8774829974       -3.1826003730
  O         8.5689393199       -3.4154021436       -4.6047606736
  O         8.2721508154       -2.6971176689       -2.5210409241
  C         9.7980660338       -4.6251975229        2.1809946749
  H        10.6408655401       -5.3318691344        2.3887999993
  O         9.7481162827       -4.1811563828        0.9932039211
  O         9.0301341428       -4.5686964619        3.1873076702
  C        -2.8217276963       -8.8884292343        5.3598597907
  H        -2.4154187803       -9.9024293192        5.4343946394
  O        -1.9851704970       -7.9308687432        5.0426328231
  O        -4.0903996442       -8.7278850515        5.4048020442
  C         2.9969194937       -8.6916131444        5.2874280854
  H         2.6967725338       -9.0398269484        6.2934215078
  O         2.0003335242       -8.3584506638        4.5598574633
  O         4.2231247920       -8.6024207662        4.9184316739
  C         2.8792996012       -5.7053275928        8.2324206016
  H         2.3955873073       -6.3773024893        8.9303283437
  O         2.2200955723       -4.8094982046        7.6168180814
  O         4.1496309396       -5.9042413803        8.1542872106
  C        -2.5347110586       -5.9173489282        8.5219960204
  H        -2.0052498086       -6.7390725628        9.0096019785
  O        -1.9210903627       -5.2590819533        7.5986019378
  O        -3.6522190310       -5.5091253458        8.8933539856
  C        -6.8630661704        2.3027074113        7.3891946373
  H        -7.2086193538        3.3071349018        7.3885257928
  O        -5.6221895487        2.1593195716        7.5342161435
  O        -7.6700326264        1.3707428399        7.2000832554
  C        -4.1169993469        6.2827988566        7.2281832797
  H        -5.2418933127        6.2896177269        7.3832000201
  O        -3.5275008623        5.2294486842        6.7741982127
  O        -3.5914813928        7.4675228316        7.3182646219
  C        -6.2567390143        7.1462362187        4.0780956932
  H        -7.2111390447        7.1649409639        4.6689854642
  O        -5.8092218220        6.0487603466        3.6284573323
  O        -5.6139000106        8.2213179663        3.8498015292
  C        -9.2742118109        2.9617521312        4.4604798089
  H        -9.7855372140        3.8838940690        4.7760086716
  O        -8.0592806493        3.0118801321        4.1196164824
  O       -10.0819666993        1.9801626126        4.3927714344
  C        -9.6032740014       -3.5282169855        4.2551636136
  H       -10.5971720209       -3.6001750875        4.7566807035
  O        -9.3837251133       -2.7227884898        3.2944084061
  O        -8.6804744610       -4.3027328375        4.7638402447
  C        -5.4081383732       -6.0792285553       -6.1561888080
  H        -6.0546960796       -6.5859836395       -6.8890942905
  O        -5.3116714794       -6.5044062702       -4.9663959260
  O        -4.7995153067       -5.0930207996       -6.6856131671
  C        -7.4874902994       -7.2705646887       -1.8347955944
  H        -7.8388434959       -7.7173330376       -2.7530342297
  O        -6.3892032798       -6.5552203492       -1.8849096179
  O        -8.0722753282       -7.4413237189       -0.7462620216
  C        -9.2562705140       -3.4270010150       -2.1219733926
  H        -9.5270787848       -4.0663584857       -2.9594189931
  O        -8.1701876397       -2.7556316502       -2.2726278760
  O        -9.8246430347       -3.4943528254       -1.0096277472
  C        -6.7207069151       -1.5101493855       -7.0045951952
  H        -7.7450574417       -1.9674181007       -7.1698505571
  O        -6.3200234935       -1.2783634063       -5.8000399968
  O        -6.0643896926       -1.2639528303       -8.0161209650
  C        -1.9629033132        5.6954891593       -7.4853131813
  H        -1.7770888886        6.7764005651       -7.4923242406
  O        -2.4612212892        5.1873618822       -6.4094801013
  O        -1.7560257863        5.0417148763       -8.5290119300
  C        -1.7168890918        9.0075047062       -3.7839144248
  H        -1.3493405476        9.2660238074       -4.8465614694
  O        -1.7698584270        7.7206193825       -3.5249340072
  O        -1.9636400558        9.8900356526       -2.9413335197
  C         2.5062367265        8.6538838657       -4.1272906827
  H         2.7131102182        9.0638249498       -5.0476060874
  O         2.0944150612        7.4541797759       -4.0305109998
  O         2.6627524441        9.4116154099       -3.1559252641
  C         1.7411541268        5.3672423516       -8.1968635456
  H         1.4358383610        6.4416008070       -8.3632925476
  O         2.2779973254        5.0771438646       -7.0424291433
  O         1.5310354269        4.4839738068       -9.0180547295
  C         9.4768781844        2.6096270774        3.9000008337
  H         9.6131090334        3.4671477718        4.5843902861
  O         8.5288256263        2.7174885996        3.0498443245
  O        10.1890710169        1.5406101307        4.0337370605
  C         6.6326586044        7.0383016324        3.3282044554
  H         7.5082674956        7.1289998248        4.0070788575
  O         6.4948377984        6.1610081267        2.4469158592
  O         5.7961519910        7.9032870032        3.5820085253
  C         4.7447681668        5.8524815505        6.9353953817
  H         5.7085862008        5.7040540943        7.4370666698
  O         4.3289862966        4.9887741933        6.0816315845
  O         4.1469791758        6.9227764909        7.1379284758
  C         7.5603370112        1.7452811118        7.1878796603
  H         8.1158840311        2.6116602203        7.6593692779
  O         6.7464180870        2.0302662695        6.2246969690
  O         7.8439061875        0.5825141760        7.5899225834
     227
 i =        2, time =        2.000, E =        -2.5657373286
 Cd        -8.6168883642        0.4780860123        3.4771527996
 Cd        -5.8716271138       -0.2574340136        7.1132878316
 Cd        -8.4089258000       -2.1556792670        0.3833248064
 Cd        -6.8893794758       -3.2934809271        3.9622194651