     227
 i =        0, time =        0.000, E =       -11.4054440723
 Cd        -8.6216924880        0.4810107428        3.4775887729
 Cd        -5.8723589632       -0.2566559957        7.1151373767
 Cd        -8.4076147924       -2.1531404527        0.3867588804
 Cd        -6.8957642261       -3.2896665849        3.9600318291
 Cd        -3.6930098048       -3.6992689615        7.3819491709
 Cd        -6.4429261463       -6.2347087238        0.4622469067
 Cd        -4.3123952394       -6.8285875372        3.9039095072
 Cd        -6.1141073353        3.8626235599        2.9066844924
 Cd        -3.6048790416        2.8797284733        6.5917986711
 Cd        -6.7531255596        1.1841266196       -0.3182182747
 Cd        -4.0437606329        0.0729837467        3.0511954168
 Cd        -1.7753257667       -0.3121054857        6.8316599018
 Cd        -6.3661028473       -1.4630135273       -3.4383357626
 Cd        -4.3602814436       -3.1214810613       -0.1759283953
 Cd        -2.2424276819       -3.6242998489        3.6335413818
 Cd         0.1757294635       -3.9625201566        7.0364714760
 Cd        -4.2692200317       -5.9860442556       -3.0005266361
 Cd        -2.2482225396       -6.7972628816        0.6786391664
 Cd         0.0669003827       -7.3030327295        3.8545421700
 Cd        -4.0792754193        7.4105475565        2.4175118797
 Cd        -1.6116442377        6.4880648240        6.2478272306
 Cd        -4.3308002626        4.8127262164       -0.6762739309
 Cd        -1.8326132452        3.6694977750        3.1598212265
 Cd         0.4939817277        3.1637060931        6.7202662426
 Cd        -4.5980154021        1.9988297698       -4.0880170010
 Cd        -2.1651194586        1.0165564496       -0.4536921834
 Cd         0.1376109507       -0.0659106884        3.1336818174
 Cd         2.6419074521       -0.6636939286        6.8958319365
 Cd        -4.1515129292       -0.5348426091       -6.9620217917
 Cd        -2.2012490343       -1.8491984656       -3.4894107829
 Cd         0.0359311218       -2.8494155653       -0.0264680683
 Cd         2.4407298775       -3.8224684908        3.5289587884
 Cd         4.5907434619       -4.2169180472        6.5928471603
 Cd        -2.6321953796       -4.5685798778       -6.0773989300
 Cd        -0.3638438279       -6.1221236347       -3.0620735359
 Cd         1.9882729153       -6.8506852632       -0.0376753302
 Cd         4.3604701588       -7.5063202656        3.0981086138
 Cd        -2.4313710890        8.2839908015       -1.2010761441
 Cd         0.1210964618        6.7915494583        2.0748938605
 Cd         2.2602783261        6.3879934074        5.9824457591
 Cd        -2.2743307721        5.5403016700       -4.1096429978
 Cd         0.1552258413        4.6164378819       -0.9814446932
 Cd         2.6173372932        3.7540356816        2.4616712460
 Cd         4.3934694910        2.5024270436        5.6448470259
 Cd        -2.3839877703        3.0961459608       -7.5397423510
 Cd        -0.1308699873        1.7716472388       -4.3458913396
 Cd         2.1522040622        0.8595996928       -0.9600505658
 Cd         4.3027041934       -0.4425155449        2.5248589789
 Cd         6.4943132815       -0.6514444341        6.0110723312
 Cd         0.4032906214       -0.5920449882       -7.0625722312
 Cd         2.1504065746       -1.8410095193       -3.9631978812
 Cd         4.1282053355       -2.9764966895       -0.5499119195
 Cd         6.9189885741       -3.8001688729        2.8840486736
 Cd         1.0693858855       -4.7693596381       -6.7909688629
 Cd         3.6529341800       -5.7620820022       -3.6150795142
 Cd         5.7341856059       -6.5625995016       -0.3323817960
 Cd         2.4532379782        8.1225833618       -1.1556872380
 Cd         4.4025673150        7.2904811152        1.7928276254
 Cd         2.3800547108        5.2453457502       -4.8107637235
 Cd         4.8184663347        4.7191125514       -1.4277792117
 Cd         6.7589411702        3.8390778732        2.0295448973
 Cd         2.6210634084        2.7844913241       -7.7035228004
 Cd         4.8495943395        1.7843685348       -4.5225056138
 Cd         6.7261500983        1.0662237140       -0.9642295531
 Cd         8.8881450478        0.4141445330        2.4369093904
 Cd         4.3615782352       -0.9213178924       -7.7328888960
 Cd         6.7438649008       -1.9767569930       -4.2031112584
 Cd         8.5272445020       -2.6218905711       -0.2551455218
 Se        -9.0557725106        0.2424574140        0.9180313808
 Se        -6.3745872764       -0.6570220647        4.4225742627
 Se        -3.9358548519       -1.3506397678        8.2925868769
 Se        -6.5830028390       -3.7408669090        1.3890860046
 Se        -4.5802302415       -4.2716541219        4.8585926421
 Se        -4.6110671623       -7.7792240778        1.5343213278
 Se        -6.6407812351        3.9866809498        0.4586064126
 Se        -4.0705866514        2.6241591830        3.9150270775
 Se        -1.6315747320        2.0143859544        7.9219454430
 Se        -6.7106235468        0.9827493806       -3.1628202938
 Se        -4.4077684895       -0.2106461950        0.3970531668
 Se        -2.0534879979       -1.1190641497        4.2604482105
 Se         0.4069246601       -1.5676855049        8.0617057342
 Se        -4.4126107232       -3.1307459794       -2.8028288282
 Se        -2.2371864822       -4.0884616040        0.9473336128
 Se         0.1541797359       -4.8148952714        4.4843326207
 Se        -2.4147106009       -7.4199706225       -2.0529393442
 Se        -0.0662571417       -7.8800811154        1.3078284855
 Se        -4.5519687636        7.5920037884       -0.0122560791
 Se        -1.8482840651        6.3647212661        3.5390459072
 Se         0.4006735392        5.8241498358        7.5878867146
 Se        -4.4655945585        4.5529209660       -3.3484418515
 Se        -2.0798083538        3.7153034916        0.3451575142
 Se         0.4973892782        2.6967113851        3.7286137790
 Se         2.7724753484        1.9958260876        7.6298945277
 Se        -4.6126224962        2.0736182894       -6.9031574659
 Se        -2.2770211290        0.8531533747       -3.1284312065
 Se         0.0138865169       -0.1636477002        0.3858468104
 Se         2.3115473387       -1.3198431962        4.0017354986
 Se         4.8624545925       -1.8855864388        7.7371297607
 Se        -2.0700877949       -1.9675257511       -6.4603372509
 Se        -0.0447057629       -3.1582708631       -2.8090856920
 Se         2.2343306950       -4.2299664240        0.7817840723
 Se         4.8342987615       -4.9516929708        4.0974643468
 Se        -0.7556003326       -6.2829108386       -5.8406699955
 Se         1.9243057511       -7.4784768035       -2.6074198353
 Se         4.2543989663       -8.3809591814        0.7363809319
 Se         0.0386925703        7.3677075300       -0.4939635450
 Se         2.3791568525        6.5289221229        3.1400383851
 Se         0.0465974103        4.4270318221       -3.5936563407
 Se         2.5167269427        3.6273521599       -0.0581806204
 Se         4.7705604635        2.4670139639        3.1233546104
 Se         0.0435933033        1.9323944164       -6.9695738842
 Se         2.2733127965        0.7623703678       -3.6584263160
 Se         4.3816175435       -0.2841549253       -0.0177063702
 Se         6.9670500347       -1.1290204494        3.5565582379
 Se         2.2410869402       -2.2702007814       -6.6798205275
 Se         4.3723294721       -3.1971869108       -3.2130677403
 Se         6.4331938555       -4.1098532443        0.4136420186
 Se         4.8503033307        7.5509093293       -0.7463548497
 Se         4.8776288797        4.5477652435       -4.0091414448
 Se         7.0830986217        3.5950723552       -0.6434567968
 Se         4.7810064642        1.5273410534       -7.5566303287
 Se         6.9188050062        0.6130038217       -3.7081238627
 Se         9.1066871843       -0.0609359671       -0.0919647969
  C         6.9955771113       -6.9586634775       -2.8583426301
  H         7.7780160969       -7.1271873265       -3.6573399650
  O         5.8389952916       -6.4652991204       -3.1445809228
  O         7.2920676004       -7.2683568805       -1.6893132711
  C         3.3939431960       -6.2668607509       -6.9513074648
  H         4.3245440932       -6.8689211647       -7.0591687882
  O         3.0202466073       -5.7860511295       -5.7843136273
  O         2.6220129789       -6.1746538788       -7.9242101403
  C         6.3116555909       -2.9071154185       -7.4921130606
  H         7.0978863851       -3.7212906458       -7.4285512081
  O         6.0096715894       -2.3219711192       -6.3505932827
  O         5.9403243477       -2.4750431756       -8.6116316973
  C         8.9837561036       -3.3697375837       -3.4349055328
  H         9.9249943929       -3.8864043165       -3.1840078659
  O         8.5659407989       -3.4209184445       -4.6048832464
  O         8.2714489672       -2.6971151254       -2.5207012617
  C         9.7902109758       -4.6282247391        2.1768529346
  H        10.6284324694       -5.3337138149        2.3552924638
  O         9.7484501532       -4.1824896055        0.9942458601
  O         9.0219926648       -4.5705851174        3.1873629795
  C        -2.8252708508       -8.8894178348        5.3653894160
  H        -2.3915771747       -9.8892286280        5.4446685031
  O        -1.9808601030       -7.9304545651        5.0436955975
  O        -4.0908415257       -8.7280019527        5.4030844137
  C         3.0047406823       -8.6887063298        5.2919739424
  H         2.6853413808       -9.0312323512        6.2714246943
  O         1.9985977812       -8.3553887881        4.5599054594
  O         4.2197147413       -8.6069092298        4.9235206312
  C         2.8732291572       -5.7090624943        8.2322507888
  H         2.4095730423       -6.3582442170        8.9295273658
  O         2.2236878889       -4.8031284854        7.6183804854
  O         4.1525405945       -5.8988692439        8.1468427445
  C        -2.5324052264       -5.9090323801        8.5168983878
  H        -2.0058427467       -6.7599986745        9.0204193621
  O        -1.9189018681       -5.2527647032        7.5983339134
  O        -3.6521974131       -5.4981014961        8.8936623702
  C        -6.8661340661        2.3082426882        7.3884767521
  H        -7.2433530482        3.2983326111        7.3747512577
  O        -5.6189307919        2.1553364867        7.5292857639
  O        -7.6694328727        1.3672322100        7.2032576312
  C        -4.1128935570        6.2776012356        7.2258109093
  H        -5.2184092536        6.2949225170        7.4003980339
  O        -3.5215502414        5.2331222329        6.7794929280
  O        -3.5956064510        7.4679880815        7.3184340370
  C        -6.2584500423        7.1467273309        4.0778865765
  H        -7.2018864753        7.1620259062        4.6862261037
  O        -5.8042352338        6.0508881806        3.6277903665
  O        -5.6141473350        8.2227071687        3.8530055117
  C        -9.2670155991        2.9624473135        4.4549609073
  H        -9.7760873251        3.8307467380        4.7753730710
  O        -8.0580447847        3.0137717908        4.1153681461
  O       -10.0869615960        1.9755230626        4.3964141791
  C        -9.5997958208       -3.5202239981        4.2555074891
  H       -10.6284324694       -3.6062117458        4.7363993397
  O        -9.3836198173       -2.7271085544        3.2939504316
  O        -8.6749593009       -4.3055307223        4.7674147240
  C        -5.4063829718       -6.0836320759       -6.1576393485
  H        -6.0390997038       -6.5934387315       -6.8768176703
  O        -5.3157147411       -6.5042627408       -4.9638375967
  O        -4.7997118332       -5.0931497246       -6.6842330004
  C        -7.4812021438       -7.2683192216       -1.8337008205
  H        -7.8430239833       -7.7214409635       -2.7403108931
  O        -6.3847231004       -6.5596142310       -1.8855223803
  O        -8.0870004405       -7.4369608581       -0.7449951352
  C        -9.2637717352       -3.4248031045       -2.1287629167
  H        -9.5435102925       -4.0726156799       -2.9624854104
  O        -8.1685743898       -2.7562864935       -2.2769679175
  O        -9.8293124780       -3.4993302663       -1.0042472880
  C        -6.7198117275       -1.5155721631       -7.0057360974
  H        -7.7266400310       -1.9701098143       -7.1795729881
  O        -6.3208037730       -1.2812141421       -5.7891801227
  O        -6.0546670581       -1.2647410752       -8.0219575549
  C        -1.9610306020        5.6962737072       -7.4797868569
  H        -1.8068881661        6.7616764611       -7.4798700689
  O        -2.4613788677        5.1953402046       -6.4147373301
  O        -1.7592038190        5.0404242691       -8.5376948407
  C        -1.7153677193        9.0065729983       -3.7807068554
  H        -1.3518565997        9.2891789052       -4.8285272378
  O        -1.7735635219        7.7204009534       -3.5311974415
  O        -1.9589811591        9.8892286280       -2.9296575010
  C         2.5176986766        8.6527359013       -4.1276241396
  H         2.7356319561        9.0838176512       -5.0545617483
  O         2.0941304229        7.4607563111       -4.0382054964
  O         2.6632020791        9.4136986823       -3.1567247192
  C         1.7405814703        5.3615037054       -8.2026998584
  H         1.4592813282        6.4433815072       -8.3446733349
  O         2.2712544771        5.0744229803       -7.0359036782
  O         1.5374971892        4.4786315137       -9.0204193621
  C         9.4791869119        2.6134878200        3.9079418032
  H         9.6264681644        3.4611325178        4.5867541287
  O         8.5294682966        2.7206869475        3.0468687327
  O        10.1884170796        1.5361363159        4.0354546634
  C         6.6320899766        7.0427804887        3.3240585285
  H         7.5183451153        7.1103565644        4.0025867163
  O         6.4921259472        6.1579139584        2.4473334656
  O         5.8014508194        7.8970951585        3.5804466065
  C         4.7468288793        5.8510846562        6.9391041765
  H         5.6837062732        5.7110173508        7.4566454645
  O         4.3315486404        4.9881730889        6.0840680113
  O         4.1390624477        6.9214380767        7.1338855679
  C         7.5642974957        1.7429307679        7.1823006621
  H         8.1116275708        2.6102062210        7.6466333920
  O         6.7423080014        2.0330978891        6.2208765696
  O         7.8434776238        0.5800715711        7.5931108165
     227
 i =        1, time =        1.000, E =       -11.4208480542
 Cd        -8.6193273022        0.4796178635        3.4772292480
 Cd        -5.8716724894       -0.2571454385        7.1143423152
 Cd        -8.4082374258       -2.1542199617        0.3851744226
 Cd        -6.8926858494       -3.2917370487        3.9611048008
 Cd        -3.6901866648       -3.7004775364        7.3823240208
 Cd        -6.4420198684       -6.2357423188        0.4642789783
 Cd        -4.3123313821       -6.8295935129        3.9053277405
 Cd        -6.1164361569        3.8609255469        2.9056973826
 Cd        -3.6067130176        2.8812679292        6.5903378337
 Cd        -6.7534268657        1.1872577536       -0.3192318690
 Cd        -4.0444751869        0.0755180265        3.0501590586
 Cd        -1.7741873511       -0.3126637434        6.8335520273
 Cd        -6.3661306284       -1.4626231641       -3.4401775529
 Cd        -4.3614361714       -3.1217345722       -0.1745272490
 Cd        -2.2425992548       -3.6216693991        3.6335992878
 Cd         0.1786187791       -3.9616350695        7.0369427100
 Cd        -4.2694527052       -5.9881147837       -2.9988712726
 Cd        -2.2488285484       -6.7965672158        0.6791167558
 Cd         0.0677426382       -7.3030850237        3.8542738111
 Cd        -4.0802060962        7.4119095642        2.4184089705
 Cd        -1.6108881496        6.4880237347        6.2508849020
 Cd        -4.3325325321        4.8128450864       -0.6769410891
 Cd        -1.8303984715        3.6696457072        3.1588946929
 Cd         0.4898100123        3.1633627495        6.7204790801
 Cd        -4.5995075671        2.0001320889       -4.0891010868
 Cd        -2.1629366939        1.0181908137       -0.4517480778
 Cd         0.1384190552       -0.0681162348        3.1344006115
 Cd         2.6424376068       -0.6635371565        6.8958449613
 Cd        -4.1541075638       -0.5351316543       -6.9611267259
 Cd        -2.2032000489       -1.8490498041       -3.4900852419
 Cd         0.0357958891       -2.8475009733       -0.0251056647
 Cd         2.4397394795       -3.8216680970        3.5304322473
 Cd         4.5938329942       -4.2152243425        6.5946995561
 Cd        -2.6317698773       -4.5699233426       -6.0785285405
 Cd        -0.3609366790       -6.1209843853       -3.0631538773
 Cd         1.9864505219       -6.8523286314       -0.0374345934
 Cd         4.3578858098       -7.5048741045        3.0973485617
 Cd        -2.4319564533        8.2867884815       -1.2004231282
 Cd         0.1211443058        6.7911912659        2.0746499708
 Cd         2.2581496949        6.3879727477        5.9824833984
 Cd        -2.2739707390        5.5406158063       -4.1121702734
 Cd         0.1544518621        4.6148787471       -0.9822834775
 Cd         2.6164846664        3.7534430698        2.4611605994
 Cd         4.3939541856        2.5015491270        5.6447769877
 Cd        -2.3863817004        3.0936844400       -7.5399361119
 Cd        -0.1312536113        1.7709419009       -4.3473966460
 Cd         2.1531520941        0.8600761745       -0.9632017965
 Cd         4.3035428821       -0.4402345485        2.5249229718
 Cd         6.4920299840       -0.6517230279        6.0105947325
 Cd         0.4041432656       -0.5928031510       -7.0621830349
 Cd         2.1512837355       -1.8411575302       -3.9633307216
 Cd         4.1300042746       -2.9779910866       -0.5482420103
 Cd         6.9198199788       -3.7969268611        2.8856549746
 Cd         1.0695992933       -4.7690986813       -6.7907356586
 Cd         3.6506585796       -5.7625047256       -3.6176718494
 Cd         5.7328860317       -6.5639410445       -0.3327482150
 Cd         2.4549935676        8.1223711144       -1.1566610729
 Cd         4.4054179902        7.2898346392        1.7948145706
 Cd         2.3804044857        5.2452085452       -4.8086439762
 Cd         4.8189137938        4.7185049635       -1.4283113225
 Cd         6.7582574880        3.8401971447        2.0311331910
 Cd         2.6216553259        2.7829731691       -7.7033926406
 Cd         4.8491838053        1.7847488600       -4.5232131882
 Cd         6.7276827428        1.0648988156       -0.9631156539
 Cd         8.8867561493        0.4155766812        2.4348559548
 Cd         4.3617785947       -0.9228023690       -7.7309553484
 Cd         6.7427490996       -1.9756434528       -4.2012384903
 Cd         8.5291660028       -2.6208104953       -0.2527626997
 Se        -9.0549708266        0.2430961132        0.9182142343
 Se        -6.3728113321       -0.6564551782        4.4183655367
 Se        -3.9344345555       -1.3488890899        8.2968569241
 Se        -6.5831205752       -3.7425941517        1.3879900112
 Se        -4.5790622279       -4.2749964318        4.8598640672
 Se        -4.6122833247       -7.7768434881        1.5327739925
 Se        -6.6424718284        3.9855579475        0.4574437408
 Se        -4.0720024559        2.6208285622        3.9144215150
 Se        -1.6332001257        2.0118899518        7.9254160691
 Se        -6.7120536904        0.9831063684       -3.1653548184
 Se        -4.4071413601       -0.2112354109        0.3948630417
 Se        -2.0530479216       -1.1152617362        4.2594632663
 Se         0.4059788095       -1.5661515348        8.0652552691
 Se        -4.4161275894       -3.1301495532       -2.8047908105
 Se        -2.2373295948       -4.0916032120        0.9472300397
 Se         0.1529851314       -4.8127047641        4.4858825268
 Se        -2.4165387564       -7.4208836962       -2.0539015670
 Se        -0.0667828704       -7.8794219580        1.3095861456
 Se        -4.5524398631        7.5948978881       -0.0128293497
 Se        -1.8469977918        6.3633690400        3.5402995895
 Se         0.4037470701        5.8261135857        7.5862714254
 Se        -4.4662964999        4.5540418852       -3.3489629380
 Se        -2.0809564745        3.7152123803        0.3431678795
 Se         0.4983044578        2.6969043165        3.7288203760
 Se         2.7718127798        1.9958950549        7.6263947999
 Se        -4.6134547241        2.0747871431       -6.9049487522
 Se        -2.2789433233        0.8534891706       -3.1261358075
 Se         0.0146384491       -0.1632514121        0.3854401071
 Se         2.3129944644       -1.3187398389        3.9991894550
 Se         4.8632425295       -1.8842822692        7.7356190606
 Se        -2.0700698009       -1.9664521702       -6.4604205307
 Se        -0.0446065605       -3.1600395689       -2.8087765095
 Se         2.2322734694       -4.2315067743        0.7809624469
 Se         4.8362682559       -4.9532352719        4.0967420441
 Se        -0.7551585428       -6.2851489604       -5.8414021290
 Se         1.9250216571       -7.4792314248       -2.6077387518
 Se         4.2593218208       -8.3795047847        0.7362635154
 Se         0.0355670457        7.3687027063       -0.4913976370
 Se         2.3810456872        6.5252050377        3.1427487496
 Se         0.0438079585        4.4288445280       -3.5941059827
 Se         2.5164016583        3.6274262605       -0.0571450336
 Se         4.7728524483        2.4660564223        3.1252762491
 Se         0.0454988577        1.9301643179       -6.9707121801
 Se         2.2759204861        0.7649390798       -3.6570777234
 Se         4.3767425467       -0.2853618015       -0.0179936461
 Se         6.9677487900       -1.1294914660        3.5581082590
 Se         2.2371727777       -2.2683896665       -6.6838436421
 Se         4.3738384692       -3.1974998118       -3.2157228837
 Se         6.4331708179       -4.1117392156        0.4127678966
 Se         4.8519115919        7.5524307145       -0.7460319541
 Se         4.8775389694        4.5490307694       -4.0124664571
 Se         7.0857961336        3.5936561651       -0.6428614242
 Se         4.7820418879        1.5266165639       -7.5555514532
 Se         6.9188438155        0.6111860206       -3.7073465113
 Se         9.1070508661       -0.0626467866       -0.0924821579
  C         6.9966713118       -6.9498015610       -2.8612713344
  H         7.7649322095       -7.1224747738       -3.6684216540
  O         5.8444728971       -6.4673844444       -3.1399648896
  O         7.2895669113       -7.2745871674       -1.6945249626
  C         3.3950829231       -6.2672851430       -6.9491601843
  H         4.3444066225       -6.8936096686       -7.0753272229
  O         3.0188241065       -5.7909938420       -5.7827137685
  O         2.6179571879       -6.1691094541       -7.9241551914
  C         6.3106272008       -2.9078635624       -7.4910123640
  H         7.1299137504       -3.7048862282       -7.4466889051
  O         6.0083718076       -2.3183419518       -6.3480550966
  O         5.9395884748       -2.4744777420       -8.6125864176
  C         8.9774174217       -3.3708885023       -3.4296336741
  H         9.9250180562       -3.8774829974       -3.1826003730
  O         8.5685968263       -3.4151398425       -4.6046716890
  O         8.2718644371       -2.6968600903       -2.5205460133
  C         9.7980454069       -4.6251894286        2.1809864927
  H        10.6408655401       -5.3318691344        2.3887999993
  O         9.7473633898       -4.1808207380        0.9928932394
  O         9.0293850468       -4.5684056302        3.1871561111
  C        -2.8217194713       -8.8884076490        5.3598599325
  H        -2.4154187803       -9.9024293192        5.4343946394
  O        -1.9849619420       -7.9306866953        5.0424398984
  O        -4.0904212740       -8.7276159805        5.4045762691
  C         2.9969137984       -8.6915903771        5.2874316117
  H         2.6967725338       -9.0398269484        6.2934215078
  O         1.9998953416       -8.3581276284        4.5596147140
  O         4.2232224818       -8.6016075333        4.9172100001
  C         2.8792881147       -5.7053290860        8.2324029853
  H         2.3955873073       -6.3773024893        8.9303283437
  O         2.2196014868       -4.8091186598        7.6165125357
  O         4.1497175088       -5.9038598461        8.1539241339
  C        -2.5347057480       -5.9173515233        8.5219697688
  H        -2.0052498086       -6.7390725628        9.0096019785
  O        -1.9212084119       -5.2586735039        7.5984004330
  O        -3.6522271296       -5.5087620789        8.8930395937
  C        -6.8630616815        2.3027109389        7.3891646955
  H        -7.2086193538        3.3071349018        7.3885257928
  O        -5.6217457799        2.1591618779        7.5339295447
  O        -7.6697330166        1.3704516985        7.1999554936
  C        -4.1170064496        6.2827853818        7.2281624974
  H        -5.2418933127        6.2896177269        7.3832000201
  O        -3.5270588713        5.2292216853        6.7739590712
  O        -3.5912419097        7.4673986745        7.3181169719
  C        -6.2567287780        7.1462177206        4.0781033894
  H        -7.2111390447        7.1649409639        4.6689854642
  O        -5.8090541096        6.0483288216        3.6281466730
  O        -5.6133602312        8.2210218108        3.8493085473
  C        -9.2741884806        2.9617389934        4.4604869286
  H        -9.7855372140        3.8838940690        4.7760086716
  O        -8.0590095602        3.0118416276        4.1194237581
  O       -10.0815478779        1.9797391100        4.3925005115
  C        -9.6032580358       -3.5282079579        4.2551541246
  H       -10.5971720209       -3.6001750875        4.7566807035
  O        -9.3832995832       -2.7227471189        3.2942575122
  O        -8.6796454475       -4.3022705642        4.7634572015
  C        -5.4081386935       -6.0792130388       -6.1561722384
  H        -6.0546960796       -6.5859836395       -6.8890942905
  O        -5.3113479245       -6.5042156373       -4.9658515825
  O        -4.7989857462       -5.0928726308       -6.6854416002
  C        -7.4874802660       -7.2705397645       -1.8347998140
  H        -7.8388434959       -7.7173330376       -2.7530342297
  O        -6.3889340525       -6.5550670241       -1.8846004190
  O        -8.0719627267       -7.4410997811       -0.7460349773
  C        -9.2562476993       -3.4270096298       -2.1219660744
  H        -9.5270787848       -4.0663584857       -2.9594189931
  O        -8.1699318213       -2.7554970365       -2.2726198994
  O        -9.8243916406       -3.4941536418       -1.0094053032
  C        -6.7206977259       -1.5101642301       -7.0045787789
  H        -7.7450574417       -1.9674181007       -7.1698505571
  O        -6.3198515903       -1.2781452088       -5.7994519629
  O        -6.0638605789       -1.2637089240       -8.0158159119
  C        -1.9628864046        5.6954852818       -7.4852972588
  H        -1.7770888886        6.7764005651       -7.4923242406
  O        -2.4612010462        5.1869793865       -6.4090658962
  O        -1.7561797678        5.0410959388       -8.5286785791
  C        -1.7168724403        9.0074861813       -3.7839162285
  H        -1.3493405476        9.2660238074       -4.8465614694
  O        -1.7698842389        7.7200419310       -3.5246423259
  O        -1.9636878290        9.8897651652       -2.9410536122
  C         2.5062221940        8.6538677953       -4.1272910042
  H         2.7131102182        9.0638249498       -5.0476060874
  O         2.0944008223        7.4536668039       -4.0305499717
  O         2.6627587570        9.4113562733       -3.1555388448
  C         1.7411344837        5.3672401854       -8.1968481445
  H         1.4358383610        6.4416008070       -8.3632925476
  O         2.2780432084        5.0768106529       -7.0416777238
  O         1.5311173706        4.4835806189       -9.0177324768
  C         9.4768499610        2.6096237977        3.9000085703
  H         9.6131090334        3.4671477718        4.5843902861
  O         8.5283842102        2.7173831901        3.0495261463
  O        10.1887938330        1.5403788922        4.0334194359
  C         6.6326481436        7.0382802344        3.3282135465
  H         7.5082674956        7.1289998248        4.0070788575
  O         6.4945925345        6.1607193902        2.4467166731
  O         5.7957565976        7.9031090655        3.5816463586
  C         4.7447742113        5.8524720553        6.9353744724
  H         5.7085862008        5.7040540943        7.4370666698
  O         4.3287075937        4.9885938795        6.0815251592
  O         4.1463636130        6.9225966845        7.1375645648
  C         7.5603320009        1.7452821489        7.1878557978
  H         8.1158840311        2.6116602203        7.6593692779
  O         6.7460817588        2.0302059855        6.2245008136
  O         7.8436703864        0.5823055995        7.5896864564
     227
 i =        2, time =        2.000, E =       -11.4526648358
 Cd        -8.6169392885        0.4782205127        3.4770051744
 Cd        -5.8713089514       -0.2574563704        7.1134332394
 Cd        -8.4089515743       -2.1555116011        0.3834366066
 Cd        -6.8895201676       -3.2936503617        3.9621800064