     227
 i =        0, time =        0.000, E =       -19.4886516503
 Cd        -8.6216924880        0.4810107428        3.4775887729
 Cd        -5.8723589632       -0.2566559957        7.1151373767
 Cd        -8.4076147924       -2.1531404527        0.3867588804
 Cd        -6.8957642261       -3.2896665849        3.9600318291
 Cd        -3.6930098048       -3.6992689615        7.3819491709
 Cd        -6.4429261463       -6.2347087238        0.4622469067
 Cd        -4.3123952394       -6.8285875372        3.9039095072
 Cd        -6.1141073353        3.8626235599        2.9066844924
 Cd        -3.6048790416        2.8797284733        6.5917986711
 Cd        -6.7531255596        1.1841266196       -0.3182182747
 Cd        -4.0437606329        0.0729837467        3.0511954168
 Cd        -1.7753257667       -0.3121054857        6.8316599018
 Cd        -6.3661028473       -1.4630135273       -3.4383357626
 Cd        -4.3602814436       -3.1214810613       -0.1759283953
 Cd        -2.2424276819       -3.6242998489        3.6335413818
 Cd         0.1757294635       -3.9625201566        7.0364714760
 Cd        -4.2692200317       -5.9860442556       -3.0005266361
 Cd        -2.2482225396       -6.7972628816        0.6786391664
 Cd         0.0669003827       -7.3030327295        3.8545421700
 Cd        -4.0792754193        7.4105475565        2.4175118797
 Cd        -1.6116442377        6.4880648240        6.2478272306
 Cd        -4.3308002626        4.8127262164       -0.6762739309
 Cd        -1.8326132452        3.6694977750        3.1598212265
 Cd         0.4939817277        3.1637060931        6.7202662426
 Cd        -4.5980154021        1.9988297698       -4.0880170010
 Cd        -2.1651194586        1.0165564496       -0.4536921834
 Cd         0.1376109507       -0.0659106884        3.1336818174
 Cd         2.6419074521       -0.6636939286        6.8958319365
 Cd        -4.1515129292       -0.5348426091       -6.9620217917
 Cd        -2.2012490343       -1.8491984656       -3.4894107829
 Cd         0.0359311218       -2.8494155653       -0.0264680683
 Cd         2.4407298775       -3.8224684908        3.5289587884
 Cd         4.5907434619       -4.2169180472        6.5928471603
 Cd        -2.6321953796       -4.5685798778       -6.0773989300
 Cd        -0.3638438279       -6.1221236347       -3.0620735359
 Cd         1.9882729153       -6.8506852632       -0.0376753302
 Cd         4.3604701588       -7.5063202656        3.0981086138
 Cd        -2.4313710890        8.2839908015       -1.2010761441
 Cd         0.1210964618        6.7915494583        2.0748938605
 Cd         2.2602783261        6.3879934074        5.9824457591
 Cd        -2.2743307721        5.5403016700       -4.1096429978
 Cd         0.1552258413        4.6164378819       -0.9814446932
 Cd         2.6173372932        3.7540356816        2.4616712460
 Cd         4.3934694910        2.5024270436        5.6448470259
 Cd        -2.3839877703        3.0961459608       -7.5397423510
 Cd        -0.1308699873        1.7716472388       -4.3458913396
 Cd         2.1522040622        0.8595996928       -0.9600505658
 Cd         4.3027041934       -0.4425155449        2.5248589789
 Cd         6.4943132815       -0.6514444341        6.0110723312
 Cd         0.4032906214       -0.5920449882       -7.0625722312
 Cd         2.1504065746       -1.8410095193       -3.9631978812
 Cd         4.1282053355       -2.9764966895       -0.5499119195
 Cd         6.9189885741       -3.8001688729        2.8840486736
 Cd         1.0693858855       -4.7693596381       -6.7909688629
 Cd         3.6529341800       -5.7620820022       -3.6150795142
 Cd         5.7341856059       -6.5625995016       -0.3323817960
 Cd         2.4532379782        8.1225833618       -1.1556872380
 Cd         4.4025673150        7.2904811152        1.7928276254
 Cd         2.3800547108        5.2453457502       -4.8107637235
 Cd         4.8184663347        4.7191125514       -1.4277792117
 Cd         6.7589411702        3.8390778732        2.0295448973
 Cd         2.6210634084        2.7844913241       -7.7035228004
 Cd         4.8495943395        1.7843685348       -4.5225056138
 Cd         6.7261500983        1.0662237140       -0.9642295531
 Cd         8.8881450478        0.4141445330        2.4369093904
 Cd         4.3615782352       -0.9213178924       -7.7328888960
 Cd         6.7438649008       -1.9767569930       -4.2031112584
 Cd         8.5272445020       -2.6218905711       -0.2551455218
 Se        -9.0557725106        0.2424574140        0.9180313808
 Se        -6.3745872764       -0.6570220647        4.4225742627
 Se        -3.9358548519       -1.3506397678        8.2925868769
 Se        -6.5830028390       -3.7408669090        1.3890860046
 Se        -4.5802302415       -4.2716541219        4.8585926421
 Se        -4.6110671623       -7.7792240778        1.5343213278
 Se        -6.6407812351        3.9866809498        0.4586064126
 Se        -4.0705866514        2.6241591830        3.9150270775
 Se        -1.6315747320        2.0143859544        7.9219454430
 Se        -6.7106235468        0.9827493806       -3.1628202938
 Se        -4.4077684895       -0.2106461950        0.3970531668
 Se        -2.0534879979       -1.1190641497        4.2604482105
 Se         0.4069246601       -1.5676855049        8.0617057342
 Se        -4.4126107232       -3.1307459794       -2.8028288282
 Se        -2.2371864822       -4.0884616040        0.9473336128
 Se         0.1541797359       -4.8148952714        4.4843326207
 Se        -2.4147106009       -7.4199706225       -2.0529393442
 Se        -0.0662571417       -7.8800811154        1.3078284855
 Se        -4.5519687636        7.5920037884       -0.0122560791
 Se        -1.8482840651        6.3647212661        3.5390459072
 Se         0.4006735392        5.8241498358        7.5878867146
 Se        -4.4655945585        4.5529209660       -3.3484418515
 Se        -2.0798083538        3.7153034916        0.3451575142
 Se         0.4973892782        2.6967113851        3.7286137790
 Se         2.7724753484        1.9958260876        7.6298945277
 Se        -4.6126224962        2.0736182894       -6.9031574659
 Se        -2.2770211290        0.8531533747       -3.1284312065
 Se         0.0138865169       -0.1636477002        0.3858468104
 Se         2.3115473387       -1.3198431962        4.0017354986
 Se         4.8624545925       -1.8855864388        7.7371297607
 Se        -2.0700877949       -1.9675257511       -6.4603372509
 Se        -0.0447057629       -3.1582708631       -2.8090856920
 Se         2.2343306950       -4.2299664240        0.7817840723
 Se         4.8342987615       -4.9516929708        4.0974643468
 Se        -0.7556003326       -6.2829108386       -5.8406699955
 Se         1.9243057511       -7.4784768035       -2.6074198353
 Se         4.2543989663       -8.3809591814        0.7363809319
 Se         0.0386925703        7.3677075300       -0.4939635450
 Se         2.3791568525        6.5289221229        3.1400383851
 Se         0.0465974103        4.4270318221       -3.5936563407
 Se         2.5167269427        3.6273521599       -0.0581806204
 Se         4.7705604635        2.4670139639        3.1233546104
 Se         0.0435933033        1.9323944164       -6.9695738842
 Se         2.2733127965        0.7623703678       -3.6584263160
 Se         4.3816175435       -0.2841549253       -0.0177063702
 Se         6.9670500347       -1.1290204494        3.5565582379
 Se         2.2410869402       -2.2702007814       -6.6798205275
 Se         4.3723294721       -3.1971869108       -3.2130677403
 Se         6.4331938555       -4.1098532443        0.4136420186
 Se         4.8503033307        7.5509093293       -0.7463548497
 Se         4.8776288797        4.5477652435       -4.0091414448
 Se         7.0830986217        3.5950723552       -0.6434567968
 Se         4.7810064642        1.5273410534       -7.5566303287
 Se         6.9188050062        0.6130038217       -3.7081238627
 Se         9.1066871843       -0.0609359671       -0.0919647969
  C         6.9955771113       -6.9586634775       -2.8583426301
  H         7.7780160969       -7.1271873265       -3.6573399650
  O         5.8389952916       -6.4652991204       -3.1445809228
  O         7.2920676004       -7.2683568805       -1.6893132711
  C         3.3939431960       -6.2668607509       -6.9513074648
  H         4.3245440932       -6.8689211647       -7.0591687882
  O         3.0202466073       -5.7860511295       -5.7843136273
  O         2.6220129789       -6.1746538788       -7.9242101403
  C         6.3116555909       -2.9071154185       -7.4921130606
  H         7.0978863851       -3.7212906458       -7.4285512081
  O         6.0096715894       -2.3219711192       -6.3505932827
  O         5.9403243477       -2.4750431756       -8.6116316973
  C         8.9837561036       -3.3697375837       -3.4349055328
  H         9.9249943929       -3.8864043165       -3.1840078659
  O         8.5659407989       -3.4209184445       -4.6048832464
  O         8.2714489672       -2.6971151254       -2.5207012617
  C         9.7902109758       -4.6282247391        2.1768529346
  H        10.6284324694       -5.3337138149        2.3552924638
  O         9.7484501532       -4.1824896055        0.9942458601
  O         9.0219926648       -4.5705851174        3.1873629795
  C        -2.8252708508       -8.8894178348        5.3653894160
  H        -2.3915771747       -9.8892286280        5.4446685031
  O        -1.9808601030       -7.9304545651        5.0436955975
  O        -4.0908415257       -8.7280019527        5.4030844137
  C         3.0047406823       -8.6887063298        5.2919739424
  H         2.6853413808       -9.0312323512        6.2714246943
  O         1.9985977812       -8.3553887881        4.5599054594
  O         4.2197147413       -8.6069092298        4.9235206312
  C         2.8732291572       -5.7090624943        8.2322507888
  H         2.4095730423       -6.3582442170        8.9295273658
  O         2.2236878889       -4.8031284854        7.6183804854
  O         4.1525405945       -5.8988692439        8.1468427445
  C        -2.5324052264       -5.9090323801        8.5168983878
  H        -2.0058427467       -6.7599986745        9.0204193621
  O        -1.9189018681       -5.2527647032        7.5983339134
  O        -3.6521974131       -5.4981014961        8.8936623702
  C        -6.8661340661        2.3082426882        7.3884767521
  H        -7.2433530482        3.2983326111        7.3747512577
  O        -5.6189307919        2.1553364867        7.5292857639
  O        -7.6694328727        1.3672322100        7.2032576312
  C        -4.1128935570        6.2776012356        7.2258109093
  H        -5.2184092536        6.2949225170        7.4003980339
  O        -3.5215502414        5.2331222329        6.7794929280
  O        -3.5956064510        7.4679880815        7.3184340370
  C        -6.2584500423        7.1467273309        4.0778865765
  H        -7.2018864753        7.1620259062        4.6862261037
  O        -5.8042352338        6.0508881806        3.6277903665
  O        -5.6141473350        8.2227071687        3.8530055117
  C        -9.2670155991        2.9624473135        4.4549609073
  H        -9.7760873251        3.8307467380        4.7753730710
  O        -8.0580447847        3.0137717908        4.1153681461
  O       -10.0869615960        1.9755230626        4.3964141791
  C        -9.5997958208       -3.5202239981        4.2555074891
  H       -10.6284324694       -3.6062117458        4.7363993397
  O        -9.3836198173       -2.7271085544        3.2939504316
  O        -8.6749593009       -4.3055307223        4.7674147240
  C        -5.4063829718       -6.0836320759       -6.1576393485
  H        -6.0390997038       -6.5934387315       -6.8768176703
  O        -5.3157147411       -6.5042627408       -4.9638375967
  O        -4.7997118332       -5.0931497246       -6.6842330004
  C        -7.4812021438       -7.2683192216       -1.8337008205
  H        -7.8430239833       -7.7214409635       -2.7403108931
  O        -6.3847231004       -6.5596142310       -1.8855223803
  O        -8.0870004405       -7.4369608581       -0.7449951352
  C        -9.2637717352       -3.4248031045       -2.1287629167
  H        -9.5435102925       -4.0726156799       -2.9624854104
  O        -8.1685743898       -2.7562864935       -2.2769679175
  O        -9.8293124780       -3.4993302663       -1.0042472880
  C        -6.7198117275       -1.5155721631       -7.0057360974
  H        -7.7266400310       -1.9701098143       -7.1795729881
  O        -6.3208037730       -1.2812141421       -5.7891801227
  O        -6.0546670581       -1.2647410752       -8.0219575549
  C        -1.9610306020        5.6962737072       -7.4797868569
  H        -1.8068881661        6.7616764611       -7.4798700689
  O        -2.4613788677        5.1953402046       -6.4147373301
  O        -1.7592038190        5.0404242691       -8.5376948407
  C        -1.7153677193        9.0065729983       -3.7807068554
  H        -1.3518565997        9.2891789052       -4.8285272378
  O        -1.7735635219        7.7204009534       -3.5311974415
  O        -1.9589811591        9.8892286280       -2.9296575010
  C         2.5176986766        8.6527359013       -4.1276241396
  H         2.7356319561        9.0838176512       -5.0545617483
  O         2.0941304229        7.4607563111       -4.0382054964
  O         2.6632020791        9.4136986823       -3.1567247192
  C         1.7405814703        5.3615037054       -8.2026998584
  H         1.4592813282        6.4433815072       -8.3446733349
  O         2.2712544771        5.0744229803       -7.0359036782
  O         1.5374971892        4.4786315137       -9.0204193621
  C         9.4791869119        2.6134878200        3.9079418032
  H         9.6264681644        3.4611325178        4.5867541287
  O         8.5294682966        2.7206869475        3.0468687327
  O        10.1884170796        1.5361363159        4.0354546634
  C         6.6320899766        7.0427804887        3.3240585285
  H         7.5183451153        7.1103565644        4.0025867163
  O         6.4921259472        6.1579139584        2.4473334656
  O         5.8014508194        7.8970951585        3.5804466065
  C         4.7468288793        5.8510846562        6.9391041765
  H         5.6837062732        5.7110173508        7.4566454645
  O         4.3315486404        4.9881730889        6.0840680113
  O         4.1390624477        6.9214380767        7.1338855679
  C         7.5642974957        1.7429307679        7.1823006621
  H         8.1116275708        2.6102062210        7.6466333920
  O         6.7423080014        2.0330978891        6.2208765696
  O         7.8434776238        0.5800715711        7.5931108165
     227
 i =        1, time =        1.000, E =       -19.4983860426
 Cd        -8.6193484516        0.4796596564        3.4771614399
 Cd        -5.8715214146       -0.2571829977        7.1144086782
 Cd        -8.4082338035       -2.1541312178        0.3852355613
 Cd        -6.8927428442       -3.2918156412        3.9610925020
 Cd        -3.6901774185       -3.7003910528        7.3824050781
 Cd        -6.4419795203       -6.2357722778        0.4642605705
 Cd        -4.3123531203       -6.8296425111        3.9052121546
 Cd        -6.1163886702        3.8609367605        2.9055535162
 Cd        -3.6066224165        2.8812313993        6.5904317074
 Cd        -6.7534406214        1.1872415607       -0.3192273033
 Cd        -4.0444284793        0.0755197149        3.0501943865
 Cd        -1.7741827470       -0.3125651239        6.8336105635
 Cd        -6.3661058741       -1.4624103416       -3.4401811367
 Cd        -4.3613462054       -3.1217901440       -0.1745536377
 Cd        -2.2426172263       -3.6215581836        3.6336179017
 Cd         0.1787220805       -3.9615901880        7.0369484962
 Cd        -4.2693787488       -5.9882589558       -2.9988691532
 Cd        -2.2486905397       -6.7966487582        0.6791633355
 Cd         0.0677952203       -7.3029940115        3.8542298406
 Cd        -4.0803269198        7.4119343469        2.4182570269
 Cd        -1.6107890636        6.4879164751        6.2509907335
 Cd        -4.3325523221        4.8128087783       -0.6769625543
 Cd        -1.8304057619        3.6695950625        3.1589482233
 Cd         0.4898060936        3.1633311805        6.7205642672
 Cd        -4.5996649456        2.0001213001       -4.0890037381
 Cd        -2.1629016191        1.0181220546       -0.4517625086
 Cd         0.1384354087       -0.0681774966        3.1344266676
 Cd         2.6424405449       -0.6635630797        6.8959377905
 Cd        -4.1541037928       -0.5351553780       -6.9611340894
 Cd        -2.2031847723       -1.8491084704       -3.4900244765
 Cd         0.0358081202       -2.8475020343       -0.0250999923
 Cd         2.4397083052       -3.8215475255        3.5304723468
 Cd         4.5938306709       -4.2152043631        6.5946964148
 Cd        -2.6316960297       -4.5699954987       -6.0785571751
 Cd        -0.3609696181       -6.1210976386       -3.0631388702
 Cd         1.9863979570       -6.8523704653       -0.0374678386
 Cd         4.3578599628       -7.5050802906        3.0974172450
 Cd        -2.4320639888        8.2867262795       -1.2003726584
 Cd         0.1211454295        6.7911453774        2.0748079103
 Cd         2.2581190544        6.3879317586        5.9826839505
 Cd        -2.2740488151        5.5405465005       -4.1121332637
 Cd         0.1544573584        4.6148736404       -0.9823604905
 Cd         2.6165331398        3.7533421778        2.4610135646
 Cd         4.3939361039        2.5015423838        5.6446987746
 Cd        -2.3864925115        3.0937464548       -7.5398871365
 Cd        -0.1312646640        1.7709376532       -4.3474282470
 Cd         2.1531926102        0.8600220474       -0.9632108185
 Cd         4.3034758415       -0.4402525410        2.5247960777
 Cd         6.4920428939       -0.6517735753        6.0104929135
 Cd         0.4042712874       -0.5927803939       -7.0621290403
 Cd         2.1513325088       -1.8410998387       -3.9633424346
 Cd         4.1299931922       -2.9780291816       -0.5482379519
 Cd         6.9198302422       -3.7969847839        2.8855145269
 Cd         1.0695792499       -4.7692356160       -6.7906625158
 Cd         3.6506427772       -5.7625312478       -3.6177355424
 Cd         5.7329906385       -6.5640445040       -0.3327967537
 Cd         2.4551372365        8.1222984382       -1.1566431094
 Cd         4.4053693219        7.2897887264        1.7948419841
 Cd         2.3804098349        5.2452315988       -4.8087365321
 Cd         4.8190079983        4.7184586353       -1.4284314269
 Cd         6.7582459602        3.8401505198        2.0311477416
 Cd         2.6218110881        2.7829238028       -7.7033813872
 Cd         4.8493809382        1.7846679000       -4.5231227772
 Cd         6.7277458137        1.0650332501       -0.9631238503
 Cd         8.8867462921        0.4155917578        2.4347909484
 Cd         4.3618330525       -0.9226109136       -7.7309116084
 Cd         6.7427943079       -1.9756252236       -4.2012755704
 Cd         8.5291328184       -2.6208091107       -0.2528106782
 Se        -9.0547090699        0.2428316821        0.9183375967
 Se        -6.3727420425       -0.6565097975        4.4182951428
 Se        -3.9345533679       -1.3489709585        8.2964445042
 Se        -6.5831049574       -3.7425284520        1.3880774580
 Se        -4.5790526553       -4.2748323897        4.8597103864
 Se        -4.6122214750       -7.7764968243        1.5328629739
 Se        -6.6421968779        3.9855382647        0.4577392754
 Se        -4.0719213830        2.6208446556        3.9142660451
 Se        -1.6333390384        2.0117234444        7.9250147875
 Se        -6.7115921701        0.9828519112       -3.1654538896
 Se        -4.4070411911       -0.2111795651        0.3949123284
 Se        -2.0531318649       -1.1153519217        4.2593583191
 Se         0.4060019242       -1.5661775956        8.0650011172
 Se        -4.4160362743       -3.1299547028       -2.8046398738
 Se        -2.2374529954       -4.0915720712        0.9472024753
 Se         0.1530674121       -4.8127456183        4.4857781802
 Se        -2.4165723155       -7.4205193367       -2.0539626781
 Se        -0.0669767148       -7.8790482022        1.3095544140
 Se        -4.5520313945        7.5948213552       -0.0125602423
 Se        -1.8467000129        6.3632886386        3.5400291812
 Se         0.4036929093        5.8261705560        7.5857646265
 Se        -4.4659564796        4.5539392275       -3.3489375471
 Se        -2.0809649755        3.7152472789        0.3431653769
 Se         0.4981992118        2.6970196334        3.7286507465
 Se         2.7717815300        1.9958510316        7.6261160034
 Se        -4.6130907423        2.0747334235       -6.9048944081
 Se        -2.2788599300        0.8535019612       -3.1260970216
 Se         0.0145464604       -0.1632244137        0.3853928101
 Se         2.3129767232       -1.3189366464        3.9989677470
 Se         4.8631359413       -1.8843133954        7.7353166647
 Se        -2.0702276858       -1.9664045057       -6.4603572470
 Se        -0.0447449824       -3.1598918342       -2.8087835458
 Se         2.2323253057       -4.2314251513        0.7809253420
 Se         4.8362248841       -4.9530543554        4.0967194616
 Se        -0.7551519757       -6.2847177754       -5.8413889331
 Se         1.9250016689       -7.4789521816       -2.6075900226
 Se         4.2593763100       -8.3790911847        0.7364431530
 Se         0.0356674015        7.3685855439       -0.4912745353
 Se         2.3808775085        6.5252160423        3.1424172673
 Se         0.0437083357        4.4287967330       -3.5939727418
 Se         2.5163573105        3.6274475083       -0.0567972016
 Se         4.7726567872        2.4661980325        3.1253397631
 Se         0.0455213414        1.9298817134       -6.9704525126
 Se         2.2757834164        0.7648067599       -3.6570401768
 Se         4.3766128893       -0.2853762524       -0.0177632845
 Se         6.9676846141       -1.1294460335        3.5582649527
 Se         2.2369246298       -2.2681128489       -6.6837520147
 Se         4.3736733742       -3.1974743912       -3.2156186297
 Se         6.4331168963       -4.1116716185        0.4130225673
 Se         4.8514414558        7.5524025200       -0.7458604181
 Se         4.8774232184        4.5489528279       -4.0121806846
 Se         7.0855164619        3.5934180306       -0.6428654752
 Se         4.7815954614        1.5263832689       -7.5555397251
 Se         6.9184663960        0.6112229126       -3.7073502899
 Se         9.1068155814       -0.0627267791       -0.0922709856
  C         6.9966687213       -6.9497874070       -2.8612719903
  H         7.7649322095       -7.1224747738       -3.6684216540
  O         5.8438586054       -6.4671891110       -3.1400443725
  O         7.2883171628       -7.2740147095       -1.6934388745
  C         3.3950892248       -6.2672773950       -6.9491525242
  H         4.3444066225       -6.8936096686       -7.0753272229
  O         3.0187860663       -5.7907927059       -5.7818419692
  O         2.6176078184       -6.1687851734       -7.9238991137
  C         6.3106269269       -2.9078683113       -7.4909964656
  H         7.1299137504       -3.7048862282       -7.4466889051
  O         6.0085311931       -2.3181089259       -6.3473382921
  O         5.9392312400       -2.4741310504       -8.6123863218
  C         8.9774060620       -3.3708913648       -3.4296281079
  H         9.9250180562       -3.8774829974       -3.1826003730
  O         8.5681246377       -3.4147694576       -4.6045623493
  O         8.2716296255       -2.6966803486       -2.5199648011
  C         9.7980346674       -4.6251852143        2.1809822326
  H        10.6408655401       -5.3318691344        2.3887999993
  O         9.7470071394       -4.1803714714        0.9925444055
  O         9.0283626652       -4.5680285137        3.1870096417
  C        -2.8217151888       -8.8883964105        5.3598600063
  H        -2.4154187803       -9.9024293192        5.4343946394
  O        -1.9847073420       -7.9305715356        5.0422485137
  O        -4.0904526898       -8.7272908455        5.4043265708
  C         2.9969108331       -8.6915785231        5.2874334476
  H         2.6967725338       -9.0398269484        6.2934215078
  O         1.9992511223       -8.3577447485        4.5593574637
  O         4.2233734235       -8.6003938258        4.9152047310
  C         2.8792821342       -5.7053298635        8.2323938132
  H         2.3955873073       -6.3773024893        8.9303283437
  O         2.2188911823       -4.8087593356        7.6162216263
  O         4.1498461156       -5.9033443993        8.1534378787
  C        -2.5347029830       -5.9173528745        8.5219561007
  H        -2.0052498086       -6.7390725628        9.0096019785
  O        -1.9214449233       -5.2581717722        7.5982969582
  O        -3.6522370015       -5.5082698751        8.8926193672
  C        -6.8630593443        2.3027127756        7.3891491061
  H        -7.2086193538        3.3071349018        7.3885257928
  O        -5.6211903027        2.1590454335        7.5335898679
  O        -7.6694145171        1.3701703726        7.1999404111
  C        -4.1170101477        6.2827783661        7.2281516770
  H        -5.2418933127        6.2896177269        7.3832000201
  O        -3.5265482887        5.2289815429        6.7737579463
  O        -3.5909591907        7.4672565796        7.3179566372
  C        -6.2567234484        7.1462080894        4.0781073964
  H        -7.2111390447        7.1649409639        4.6689854642
  O        -5.8089684779        6.0477777597        3.6278006512
  O        -5.6125723072        8.2206001868        3.8485822786
  C        -9.2741763335        2.9617321531        4.4604906355
  H        -9.7855372140        3.8838940690        4.7760086716
  O        -8.0587305915        3.0118742169        4.1192189643
  O       -10.0809403329        1.9791234109        4.3921278788
  C        -9.6032497233       -3.5282032576        4.2551491841
  H       -10.5971720209       -3.6001750875        4.7566807035
  O        -9.3831641680       -2.7227655396        3.2942846163
  O        -8.6783876189       -4.3015497550        4.7628876834
  C        -5.4081388603       -6.0792049600       -6.1561636114
  H        -6.0546960796       -6.5859836395       -6.8890942905
  O        -5.3109081816       -6.5039876243       -4.9650433965
  O        -4.7982310248       -5.0926861300       -6.6852239390
  C        -7.4874750420       -7.2705267875       -1.8348020109
  H        -7.8388434959       -7.7173330376       -2.7530342297
  O        -6.3886606850       -6.5549011754       -1.8841920187
  O        -8.0715553979       -7.4407981911       -0.7457364942
  C        -9.2562358207       -3.4270141151       -2.1219622641
  H        -9.5270787848       -4.0663584857       -2.9594189931
  O        -8.1697475092       -2.7553489973       -2.2726666586
  O        -9.8241033581       -3.4938890847       -1.0091328025
  C        -6.7206929415       -1.5101719590       -7.0045702317
  H        -7.7450574417       -1.9674181007       -7.1698505571
  O        -6.3197029684       -1.2781516222       -5.7989269957
  O        -6.0631317228       -1.2634386440       -8.0154082364
  C        -1.9628776010        5.6954832630       -7.4852889686
  H        -1.7770888886        6.7764005651       -7.4923242406
  O        -2.4611182904        5.1866169069       -6.4086455775
  O        -1.7564565726        5.0402248755       -8.5282242350
  C        -1.7168637706        9.0074765362       -3.7839171676
  H        -1.3493405476        9.2660238074       -4.8465614694
  O        -1.7701382173        7.7193504754       -3.5245693069
  O        -1.9637778028        9.8894462406       -2.9407139546
  C         2.5062146275        8.6538594281       -4.1272911717
  H         2.7131102182        9.0638249498       -5.0476060874
  O         2.0944698837        7.4531212501       -4.0307226485
  O         2.6627060051        9.4110829081       -3.1551133523
  C         1.7411242564        5.3672390576       -8.1968401258
  H         1.4358383610        6.4416008070       -8.3632925476
  O         2.2781637167        5.0764786879       -7.0405315620
  O         1.5313349506        4.4832454377       -9.0174663950
  C         9.4768352663        2.6096220902        3.9000125985
  H         9.6131090334        3.4671477718        4.5843902861
  O         8.5278991773        2.7173080139        3.0491040303
  O        10.1884251198        1.5400639629        4.0329698784
  C         6.6326426971        7.0382690934        3.3282182799
  H         7.5082674956        7.1289998248        4.0070788575
  O         6.4943700548        6.1603169614        2.4465394388
  O         5.7953676295        7.9029359623        3.5811550309
  C         4.7447773584        5.8524671116        6.9353635859
  H         5.7085862008        5.7040540943        7.4370666698
  O         4.3284896082        4.9885130333        6.0814651620
  O         4.1454950285        6.9223483007        7.1370222976
  C         7.5603293922        1.7452826888        7.1878433737
  H         8.1158840311        2.6116602203        7.6593692779
  O         6.7457600151        2.0301785874        6.2244142234
  O         7.8434265199        0.5820836827        7.5893898836
     227
 i =        2, time =        2.000, E =       -19.5149184273
 Cd        -8.6170209739        0.4783870115        3.4767333174
 Cd        -5.8707072295       -0.2576070407        7.1136985945
 Cd        -8.4089386736       -2.1551614677        0.3836768857
 Cd        -6.8897431515       -3.2939629455        3.9621290512