     227
 i =        0, time =        0.000, E =        23.2540708418
 Cd        -8.6216924880        0.4810107428        3.4775887729
 Cd        -5.8723589632       -0.2566559957        7.1151373767
 Cd        -8.4076147924       -2.1531404527        0.3867588804
 Cd        -6.8957642261       -3.2896665849        3.9600318291
 Cd        -3.6930098048       -3.6992689615        7.3819491709
 Cd        -6.4429261463       -6.2347087238        0.4622469067
 Cd        -4.3123952394       -6.8285875372        3.9039095072
 Cd        -6.1141073353        3.8626235599        2.9066844924
 Cd        -3.6048790416        2.8797284733        6.5917986711
 Cd        -6.7531255596        1.1841266196       -0.3182182747
 Cd        -4.0437606329        0.0729837467        3.0511954168
 Cd        -1.7753257667       -0.3121054857        6.8316599018
 Cd        -6.3661028473       -1.4630135273       -3.4383357626
 Cd        -4.3602814436       -3.1214810613       -0.1759283953
 Cd        -2.2424276819       -3.6242998489        3.6335413818
 Cd         0.1757294635       -3.9625201566        7.0364714760
 Cd        -4.2692200317       -5.9860442556       -3.0005266361
 Cd        -2.2482225396       -6.7972628816        0.6786391664
 Cd         0.0669003827       -7.3030327295        3.8545421700
 Cd        -4.0792754193        7.4105475565        2.4175118797
 Cd        -1.6116442377        6.4880648240        6.2478272306
 Cd        -4.3308002626        4.8127262164       -0.6762739309
 Cd        -1.8326132452        3.6694977750        3.1598212265
 Cd         0.4939817277        3.1637060931        6.7202662426
 Cd        -4.5980154021        1.9988297698       -4.0880170010
 Cd        -2.1651194586        1.0165564496       -0.4536921834
 Cd         0.1376109507       -0.0659106884        3.1336818174
 Cd         2.6419074521       -0.6636939286        6.8958319365
 Cd        -4.1515129292       -0.5348426091       -6.9620217917
 Cd        -2.2012490343       -1.8491984656       -3.4894107829
 Cd         0.0359311218       -2.8494155653       -0.0264680683
 Cd         2.4407298775       -3.8224684908        3.5289587884
 Cd         4.5907434619       -4.2169180472        6.5928471603
 Cd        -2.6321953796       -4.5685798778       -6.0773989300
 Cd        -0.3638438279       -6.1221236347       -3.0620735359
 Cd         1.9882729153       -6.8506852632       -0.0376753302
 Cd         4.3604701588       -7.5063202656        3.0981086138
 Cd        -2.4313710890        8.2839908015       -1.2010761441
 Cd         0.1210964618        6.7915494583        2.0748938605
 Cd         2.2602783261        6.3879934074        5.9824457591
 Cd        -2.2743307721        5.5403016700       -4.1096429978
 Cd         0.1552258413        4.6164378819       -0.9814446932
 Cd         2.6173372932        3.7540356816        2.4616712460
 Cd         4.3934694910        2.5024270436        5.6448470259
 Cd        -2.3839877703        3.0961459608       -7.5397423510
 Cd        -0.1308699873        1.7716472388       -4.3458913396
 Cd         2.1522040622        0.8595996928       -0.9600505658
 Cd         4.3027041934       -0.4425155449        2.5248589789
 Cd         6.4943132815       -0.6514444341        6.0110723312
 Cd         0.4032906214       -0.5920449882       -7.0625722312
 Cd         2.1504065746       -1.8410095193       -3.9631978812
 Cd         4.1282053355       -2.9764966895       -0.5499119195
 Cd         6.9189885741       -3.8001688729        2.8840486736
 Cd         1.0693858855       -4.7693596381       -6.7909688629
 Cd         3.6529341800       -5.7620820022       -3.6150795142
 Cd         5.7341856059       -6.5625995016       -0.3323817960
 Cd         2.4532379782        8.1225833618       -1.1556872380
 Cd         4.4025673150        7.2904811152        1.7928276254
 Cd         2.3800547108        5.2453457502       -4.8107637235
 Cd         4.8184663347        4.7191125514       -1.4277792117
 Cd         6.7589411702        3.8390778732        2.0295448973
 Cd         2.6210634084        2.7844913241       -7.7035228004
 Cd         4.8495943395        1.7843685348       -4.5225056138
 Cd         6.7261500983        1.0662237140       -0.9642295531
 Cd         8.8881450478        0.4141445330        2.4369093904
 Cd         4.3615782352       -0.9213178924       -7.7328888960
 Cd         6.7438649008       -1.9767569930       -4.2031112584
 Cd         8.5272445020       -2.6218905711       -0.2551455218
 Se        -9.0557725106        0.2424574140        0.9180313808
 Se        -6.3745872764       -0.6570220647        4.4225742627
 Se        -3.9358548519       -1.3506397678        8.2925868769
 Se        -6.5830028390       -3.7408669090        1.3890860046
 Se        -4.5802302415       -4.2716541219        4.8585926421
 Se        -4.6110671623       -7.7792240778        1.5343213278
 Se        -6.6407812351        3.9866809498        0.4586064126
 Se        -4.0705866514        2.6241591830        3.9150270775
 Se        -1.6315747320        2.0143859544        7.9219454430
 Se        -6.7106235468        0.9827493806       -3.1628202938
 Se        -4.4077684895       -0.2106461950        0.3970531668
 Se        -2.0534879979       -1.1190641497        4.2604482105
 Se         0.4069246601       -1.5676855049        8.0617057342
 Se        -4.4126107232       -3.1307459794       -2.8028288282
 Se        -2.2371864822       -4.0884616040        0.9473336128
 Se         0.1541797359       -4.8148952714        4.4843326207
 Se        -2.4147106009       -7.4199706225       -2.0529393442
 Se        -0.0662571417       -7.8800811154        1.3078284855
 Se        -4.5519687636        7.5920037884       -0.0122560791
 Se        -1.8482840651        6.3647212661        3.5390459072
 Se         0.4006735392        5.8241498358        7.5878867146
 Se        -4.4655945585        4.5529209660       -3.3484418515
 Se        -2.0798083538        3.7153034916        0.3451575142
 Se         0.4973892782        2.6967113851        3.7286137790
 Se         2.7724753484        1.9958260876        7.6298945277
 Se        -4.6126224962        2.0736182894       -6.9031574659
 Se        -2.2770211290        0.8531533747       -3.1284312065
 Se         0.0138865169       -0.1636477002        0.3858468104
 Se         2.3115473387       -1.3198431962        4.0017354986
 Se         4.8624545925       -1.8855864388        7.7371297607
 Se        -2.0700877949       -1.9675257511       -6.4603372509
 Se        -0.0447057629       -3.1582708631       -2.8090856920
 Se         2.2343306950       -4.2299664240        0.7817840723
 Se         4.8342987615       -4.9516929708        4.0974643468
 Se        -0.7556003326       -6.2829108386       -5.8406699955
 Se         1.9243057511       -7.4784768035       -2.6074198353
 Se         4.2543989663       -8.3809591814        0.7363809319
 Se         0.0386925703        7.3677075300       -0.4939635450
 Se         2.3791568525        6.5289221229        3.1400383851
 Se         0.0465974103        4.4270318221       -3.5936563407
 Se         2.5167269427        3.6273521599       -0.0581806204
 Se         4.7705604635        2.4670139639        3.1233546104
 Se         0.0435933033        1.9323944164       -6.9695738842
 Se         2.2733127965        0.7623703678       -3.6584263160
 Se         4.3816175435       -0.2841549253       -0.0177063702
 Se         6.9670500347       -1.1290204494        3.5565582379
 Se         2.2410869402       -2.2702007814       -6.6798205275
 Se         4.3723294721       -3.1971869108       -3.2130677403
 Se         6.4331938555       -4.1098532443        0.4136420186
 Se         4.8503033307        7.5509093293       -0.7463548497
 Se         4.8776288797        4.5477652435       -4.0091414448
 Se         7.0830986217        3.5950723552       -0.6434567968
 Se         4.7810064642        1.5273410534       -7.5566303287
 Se         6.9188050062        0.6130038217       -3.7081238627
 Se         9.1066871843       -0.0609359671       -0.0919647969
  C         6.9955771113       -6.9586634775       -2.8583426301
  H         7.7780160969       -7.1271873265       -3.6573399650
  O         5.8389952916       -6.4652991204       -3.1445809228
  O         7.2920676004       -7.2683568805       -1.6893132711
  C         3.3939431960       -6.2668607509       -6.9513074648
  H         4.3245440932       -6.8689211647       -7.0591687882
  O         3.0202466073       -5.7860511295       -5.7843136273
  O         2.6220129789       -6.1746538788       -7.9242101403
  C         6.3116555909       -2.9071154185       -7.4921130606
  H         7.0978863851       -3.7212906458       -7.4285512081
  O         6.0096715894       -2.3219711192       -6.3505932827
  O         5.9403243477       -2.4750431756       -8.6116316973
  C         8.9837561036       -3.3697375837       -3.4349055328
  H         9.9249943929       -3.8864043165       -3.1840078659
  O         8.5659407989       -3.4209184445       -4.6048832464
  O         8.2714489672       -2.6971151254       -2.5207012617
  C         9.7902109758       -4.6282247391        2.1768529346
  H        10.6284324694       -5.3337138149        2.3552924638
  O         9.7484501532       -4.1824896055        0.9942458601
  O         9.0219926648       -4.5705851174        3.1873629795
  C        -2.8252708508       -8.8894178348        5.3653894160
  H        -2.3915771747       -9.8892286280        5.4446685031
  O        -1.9808601030       -7.9304545651        5.0436955975
  O        -4.0908415257       -8.7280019527        5.4030844137
  C         3.0047406823       -8.6887063298        5.2919739424
  H         2.6853413808       -9.0312323512        6.2714246943
  O         1.9985977812       -8.3553887881        4.5599054594
  O         4.2197147413       -8.6069092298        4.9235206312
  C         2.8732291572       -5.7090624943        8.2322507888
  H         2.4095730423       -6.3582442170        8.9295273658
  O         2.2236878889       -4.8031284854        7.6183804854
  O         4.1525405945       -5.8988692439        8.1468427445
  C        -2.5324052264       -5.9090323801        8.5168983878
  H        -2.0058427467       -6.7599986745        9.0204193621
  O        -1.9189018681       -5.2527647032        7.5983339134
  O        -3.6521974131       -5.4981014961        8.8936623702
  C        -6.8661340661        2.3082426882        7.3884767521
  H        -7.2433530482        3.2983326111        7.3747512577
  O        -5.6189307919        2.1553364867        7.5292857639
  O        -7.6694328727        1.3672322100        7.2032576312
  C        -4.1128935570        6.2776012356        7.2258109093
  H        -5.2184092536        6.2949225170        7.4003980339
  O        -3.5215502414        5.2331222329        6.7794929280
  O        -3.5956064510        7.4679880815        7.3184340370
  C        -6.2584500423        7.1467273309        4.0778865765
  H        -7.2018864753        7.1620259062        4.6862261037
  O        -5.8042352338        6.0508881806        3.6277903665
  O        -5.6141473350        8.2227071687        3.8530055117
  C        -9.2670155991        2.9624473135        4.4549609073
  H        -9.7760873251        3.8307467380        4.7753730710
  O        -8.0580447847        3.0137717908        4.1153681461
  O       -10.0869615960        1.9755230626        4.3964141791
  C        -9.5997958208       -3.5202239981        4.2555074891
  H       -10.6284324694       -3.6062117458        4.7363993397
  O        -9.3836198173       -2.7271085544        3.2939504316
  O        -8.6749593009       -4.3055307223        4.7674147240
  C        -5.4063829718       -6.0836320759       -6.1576393485
  H        -6.0390997038       -6.5934387315       -6.8768176703
  O        -5.3157147411       -6.5042627408       -4.9638375967
  O        -4.7997118332       -5.0931497246       -6.6842330004
  C        -7.4812021438       -7.2683192216       -1.8337008205
  H        -7.8430239833       -7.7214409635       -2.7403108931
  O        -6.3847231004       -6.5596142310       -1.8855223803
  O        -8.0870004405       -7.4369608581       -0.7449951352
  C        -9.2637717352       -3.4248031045       -2.1287629167
  H        -9.5435102925       -4.0726156799       -2.9624854104
  O        -8.1685743898       -2.7562864935       -2.2769679175
  O        -9.8293124780       -3.4993302663       -1.0042472880
  C        -6.7198117275       -1.5155721631       -7.0057360974
  H        -7.7266400310       -1.9701098143       -7.1795729881
  O        -6.3208037730       -1.2812141421       -5.7891801227
  O        -6.0546670581       -1.2647410752       -8.0219575549
  C        -1.9610306020        5.6962737072       -7.4797868569
  H        -1.8068881661        6.7616764611       -7.4798700689
  O        -2.4613788677        5.1953402046       -6.4147373301
  O        -1.7592038190        5.0404242691       -8.5376948407
  C        -1.7153677193        9.0065729983       -3.7807068554
  H        -1.3518565997        9.2891789052       -4.8285272378
  O        -1.7735635219        7.7204009534       -3.5311974415
  O        -1.9589811591        9.8892286280       -2.9296575010
  C         2.5176986766        8.6527359013       -4.1276241396
  H         2.7356319561        9.0838176512       -5.0545617483
  O         2.0941304229        7.4607563111       -4.0382054964
  O         2.6632020791        9.4136986823       -3.1567247192
  C         1.7405814703        5.3615037054       -8.2026998584
  H         1.4592813282        6.4433815072       -8.3446733349
  O         2.2712544771        5.0744229803       -7.0359036782
  O         1.5374971892        4.4786315137       -9.0204193621
  C         9.4791869119        2.6134878200        3.9079418032
  H         9.6264681644        3.4611325178        4.5867541287
  O         8.5294682966        2.7206869475        3.0468687327
  O        10.1884170796        1.5361363159        4.0354546634
  C         6.6320899766        7.0427804887        3.3240585285
  H         7.5183451153        7.1103565644        4.0025867163
  O         6.4921259472        6.1579139584        2.4473334656
  O         5.8014508194        7.8970951585        3.5804466065
  C         4.7468288793        5.8510846562        6.9391041765
  H         5.6837062732        5.7110173508        7.4566454645
  O         4.3315486404        4.9881730889        6.0840680113
  O         4.1390624477        6.9214380767        7.1338855679
  C         7.5642974957        1.7429307679        7.1823006621
  H         8.1116275708        2.6102062210        7.6466333920
  O         6.7423080014        2.0330978891        6.2208765696
  O         7.8434776238        0.5800715711        7.5931108165
     227
 i =        1, time =        1.000, E =        22.9916975437
 Cd        -8.6192358967        0.4794227263        3.4775251920
 Cd        -5.8723388170       -0.2569981046        7.1140633532
 Cd        -8.4082652072       -2.1546028957        0.3849107336
 Cd        -6.8924206429       -3.2913864721        3.9611610554
 Cd        -3.6902450083       -3.7008412001        7.3819769662
 Cd        -6.4422046640       -6.2356139159        0.4643774047
 Cd        -4.3122438210       -6.8293840276        3.9058379904
 Cd        -6.1166592777        3.8608716503        2.9063253304
 Cd        -3.6071120508        2.8814258788        6.5899398226
 Cd        -6.7533818725        1.1873414432       -0.3192588131
 Cd        -4.0446985016        0.0755092543        3.0500063492
 Cd        -1.7742011216       -0.3130977780        6.8333180521
 Cd        -6.3662586054       -1.4635533557       -3.4401586424
 Cd        -4.3618420447       -3.1214906232       -0.1744082085
 Cd        -2.2425247766       -3.6221663087        3.6335265404
 Cd         0.1781560696       -3.9618291183        7.0369328721
 Cd        -4.2697732646       -5.9874922302       -2.9988769555
 Cd        -2.2494329210       -6.7962296629        0.6789048533
 Cd         0.0675068578       -7.3034973062        3.8544676684
 Cd        -4.0796727517        7.4118097785        2.4190578871
 Cd        -1.6113080631        6.4885110763        6.2504311174
 Cd        -4.3324674499        4.8130120479       -0.6768582256
 Cd        -1.8303770813        3.6698707208        3.1586640512
 Cd         0.4898288817        3.1634939079        6.7201227202
 Cd        -4.5988410626        2.0001908001       -4.0895368914
 Cd        -2.1631071659        1.0185025547       -0.4516902086
 Cd         0.1383502589       -0.0678456402        3.1343003212
 Cd         2.6424216463       -0.6634202461        6.8954595033
 Cd        -4.1541205044       -0.5350221182       -6.9611003923
 Cd        -2.2032767361       -1.8487918188       -3.4903571951
 Cd         0.0357418066       -2.8475164169       -0.0251307808
 Cd         2.4398792521       -3.8222064208        3.5302623160
 Cd         4.5938564726       -4.2153106622        6.5947175293
 Cd        -2.6320956790       -4.5696177388       -6.0784079130
 Cd        -0.3607901696       -6.1205062649       -3.0632244149
 Cd         1.9866802370       -6.8521652228       -0.0372930060
 Cd         4.3580016335       -7.5039750054        3.0970337560
 Cd        -2.4314995259        8.2870694568       -1.2006388610
 Cd         0.1211369225        6.7914067400        2.0739637187
 Cd         2.2582736331        6.3881635405        5.9816103996
 Cd        -2.2736400645        5.5409218286       -4.1123356862
 Cd         0.1544253606        4.6149083345       -0.9819571341
 Cd         2.6162799377        3.7538881393        2.4618058920
 Cd         4.3940393684        2.5015815911        5.6451282858
 Cd        -2.3859115408        3.0933965073       -7.5401620378
 Cd        -0.1312098401        1.7709739176       -4.3472637274
 Cd         2.1529898962        0.8603235150       -0.9631726792
 Cd         4.3038535992       -0.4401506102        2.5254782156
 Cd         6.4919846288       -0.6515043335        6.0110435393
 Cd         0.4035816476       -0.5929069324       -7.0624359111
 Cd         2.1510818236       -1.8414201745       -3.9632848264
 Cd         4.1300683636       -2.9778272360       -0.5482675722
 Cd         6.9197715407       -3.7966706669        2.8862726414
 Cd         1.0696778014       -4.7684953637       -6.7910643310
 Cd         3.6507359821       -5.7624005652       -3.6173900639
 Cd         5.7324258875       -6.5634946328       -0.3325326384
 Cd         2.4543690249        8.1226967285       -1.1567472303
 Cd         4.4056308319        7.2900482297        1.7946846613
 Cd         2.3803895814        5.2451150083       -4.8082341195
 Cd         4.8185125413        4.7187193068       -1.4277939670
 Cd         6.7583197482        3.8404078317        2.0310668050
 Cd         2.6209912850        2.7831804912       -7.7034483530
 Cd         4.8483376108        1.7851092779       -4.5236142864
 Cd         6.7274218222        1.0643116351       -0.9630899316
 Cd         8.8868090807        0.4154958728        2.4351267691
 Cd         4.3615462198       -0.9236319544       -7.7311545137
 Cd         6.7425480658       -1.9757138041       -4.2010741756
 Cd         8.5293213846       -2.6208091765       -0.2525580145
 Se        -9.0561359778        0.2443056666        0.9175934779
 Se        -6.3730003879       -0.6562795741        4.4186067074
 Se        -3.9339191063       -1.3485597407        8.2987062213
 Se        -6.5829770745       -3.7429490373        1.3875148852
 Se        -4.5791198844       -4.2757105635        4.8605139836
 Se        -4.6125547274       -7.7783917354        1.5323913460
 Se        -6.6437016197        3.9856310267        0.4560699319
 Se        -4.0722801921        2.6206734548        3.9150354664
 Se        -1.6325413497        2.0125896057        7.9272058035
 Se        -6.7141228618        0.9843998779       -3.1647478119
 Se        -4.4075799049       -0.2114892934        0.3946464499
 Se        -2.0526728642       -1.1148690877        4.2599202505
 Se         0.4058326087       -1.5659679876        8.0664078665
 Se        -4.4164205051       -3.1309904336       -2.8054375610
 Se        -2.2367826108       -4.0917304921        0.9473468547
 Se         0.1526415261       -4.8124334189        4.4861884917
 Se        -2.4163728331       -7.4225074943       -2.0536412614
 Se        -0.0659558573       -7.8810730439        1.3096765483
 Se        -4.5542250221        7.5952688327       -0.0140472733
 Se        -1.8481963632        6.3637686456        3.5414140537
 Se         0.4039642527        5.8258855339        7.5885280678
 Se        -4.4678617757        4.5544857994       -3.3490103057
 Se        -2.0809032708        3.7150602346        0.3431776218
 Se         0.4987606059        2.6963990183        3.7295711788
 Se         2.7719028731        1.9960096685        7.6276767992
 Se        -4.6150522084        2.0750667736       -6.9052224656
 Se        -2.2792976635        0.8534201536       -3.1263128296
 Se         0.0150457358       -0.1633707166        0.3856479238
 Se         2.3130787935       -1.3178658186        4.0001681300
 Se         4.8637196820       -1.8841405143        7.7369674743
 Se        -2.0693417528       -1.9666489512       -6.4607215560
 Se        -0.0439959916       -3.1606863230       -2.8087477917
 Se         2.2320432650       -4.2318545592        0.7811253725
 Se         4.8364887777       -4.9539612055        4.0968184880
 Se        -0.7552916926       -6.2870691161       -5.8414713985
 Se         1.9250667341       -7.4805186733       -2.6083248883
 Se         4.2590809144       -8.3813626821        0.7354825543
 Se         0.0352244758        7.3691945674       -0.4917062084
 Se         2.3816274088        6.5251789893        3.1441451763
 Se         0.0442575659        4.4288654268       -3.5946249159
 Se         2.5165877999        3.6273388506       -0.0586720530
 Se         4.7735702923        2.4653813258        3.1248791756
 Se         0.0453275635        1.9311595648       -6.9717627011
 Se         2.2765106949        0.7655214273       -3.6572396505
 Se         4.3773041276       -0.2852972042       -0.0189992860
 Se         6.9679976615       -1.1297204525        3.5574219078
 Se         2.2381226258       -2.2694749209       -6.6842924919
 Se         4.3744011579       -3.1974552884       -3.2160337812
 Se         6.4329080160       -4.1120177130        0.4116564075
 Se         4.8540122059        7.5525665839       -0.7467691103
 Se         4.8780947516        4.5493624287       -4.0137140459
 Se         7.0870407479        3.5947067161       -0.6428836318
 Se         4.7840033658        1.5276617707       -7.5556397941
 Se         6.9204848668        0.6111349117       -3.7073474736
 Se         9.1081507814       -0.0622160927       -0.0933441646
  C         6.9966747100       -6.9498201279       -2.8612704741
  H         7.7649322095       -7.1224747738       -3.6684216540
  O         5.8478332454       -6.4690688992       -3.1396817143
  O         7.2953768280       -7.2773238541       -1.6996696928
  C         3.3950746567       -6.2672953067       -6.9491702326
  H         4.3444066225       -6.8936096686       -7.0753272229
  O         3.0195659051       -5.7923494389       -5.7870903368
  O         2.6197782300       -6.1707084107       -7.9254903619
  C         6.3106275601       -2.9078573329       -7.4910332192
  H         7.1299137504       -3.7048862282       -7.4466889051
  O         6.0083584316       -2.3194829505       -6.3519712134
  O         5.9413431533       -2.4761614971       -8.6135642473
  C         8.9774323230       -3.3708847475       -3.4296409756
  H         9.9250180562       -3.8774829974       -3.1826003730
  O         8.5708370384       -3.4169056367       -4.6051783342
  O         8.2733910219       -2.6983335608       -2.5237855091
  C         9.7980594948       -4.6251949569        2.1809920810
  H        10.6408655401       -5.3318691344        2.3887999993
  O         9.7509886487       -4.1830055892        0.9948934167
  O         9.0344239707       -4.5702941777        3.1880525971
  C        -2.8217250889       -8.8884223914        5.3598598356
  H        -2.4154187803       -9.9024293192        5.4343946394
  O        -1.9863702116       -7.9315471335        5.0435425395
  O        -4.0902255466       -8.7291924512        5.4059260082
  C         2.9969176882       -8.6916059268        5.2874292033
  H         2.6967725338       -9.0398269484        6.2934215078
  O         2.0030704864       -8.3601140459        4.5611103257
  O         4.2224690375       -8.6073994652        4.9263655337
  C         2.8792959598       -5.7053280661        8.2324150170
  H         2.3955873073       -6.3773024893        8.9303283437
  O         2.2231270228       -4.8113844731        7.6181847098
  O         4.1490626739       -5.9063949973        8.1562387865
  C        -2.5347093751       -5.9173497509        8.5219876982
  H        -2.0052498086       -6.7390725628        9.0096019785
  O        -1.9202384114       -5.2612137051        7.5993981266
  O        -3.6521563431       -5.5111518134        8.8950346395
  C        -6.8630647473        2.3027085296        7.3891851453
  H        -7.2086193538        3.3071349018        7.3885257928
  O        -5.6246759968        2.1599663618        7.5356848986
  O        -7.6714357684        1.3721214865        7.2004821010
  C        -4.1170015986        6.2827945849        7.2281766914
  H        -5.2418933127        6.2896177269        7.3832000201
  O        -3.5298334761        5.2306118480        6.7752518735
  O        -3.5926510562        7.4680935872        7.3188941225
  C        -6.2567357692        7.1462303545        4.0780981330
  H        -7.2111390447        7.1649409639        4.6689854642
  O        -5.8097805934        6.0512528604        3.6301213289
  O        -5.6170394436        8.2229713606        3.8527757104
  C        -9.2742044149        2.9617479663        4.4604820659
  H        -9.7855372140        3.8838940690        4.7760086716
  O        -8.0606059562        3.0118734659        4.1206101360
  O       -10.0843788090        1.9826482064        4.3943716867
  C        -9.6032689401       -3.5282141236        4.2551606054
  H       -10.5971720209       -3.6001750875        4.7566807035
  O        -9.3850684444       -2.7228229345        3.2948200257
  O        -8.6855845409       -4.3055958903        4.7661848794
  C        -5.4081384747       -6.0792236363       -6.1561835552
  H        -6.0546960796       -6.5859836395       -6.8890942905
  O        -5.3134550562       -6.5053064418       -4.9696960219
  O        -4.8026063398       -5.0938025319       -6.6864870742
  C        -7.4874871187       -7.2705567874       -1.8347969321
  H        -7.8388434959       -7.7173330376       -2.7530342297
  O        -6.3905413773       -6.5559031987       -1.8866278019
  O        -8.0739365788       -7.4424959842       -0.7474862114
  C        -9.2562632814       -3.4270037460       -2.1219710726
  H        -9.5270787848       -4.0663584857       -2.9594189931
  O        -8.1712619313       -2.7563068106       -2.2724546708
  O        -9.8258602488       -3.4954540191       -1.0108224634
  C        -6.7207040020       -1.5101540914       -7.0045899910
  H        -7.7450574417       -1.9674181007       -7.1698505571
  O        -6.3206511936       -1.2790755752       -5.8028772243
  O        -6.0673935916       -1.2652968967       -8.0178055741
  C        -1.9628979529        5.6954879301       -7.4853081336
  H        -1.7770888886        6.7764005651       -7.4923242406
  O        -2.4613451118        5.1892103629       -6.4116192719
  O        -1.7549921124        5.0452907079       -8.5308374285
  C        -1.7168838130        9.0074988335       -3.7839149966
  H        -1.3493405476        9.2660238074       -4.8465614694
  O        -1.7693087250        7.7237907824       -3.5258716990
  O        -1.9633225904        9.8913478170       -2.9427486554
  C         2.5062321195        8.6538787711       -4.1272907846
  H         2.7131102182        9.0638249498       -5.0476060874
  O         2.0942881709        7.4568187544       -4.0299910240
  O         2.6627555100        9.4128979194       -3.1578709600
  C         1.7411478996        5.3672416649       -8.1968586632
  H         1.4358383610        6.4416008070       -8.3632925476
  O         2.2775637559        5.0787193418       -7.0470881139
  O         1.5304385222        4.4857380313       -9.0194267698
  C         9.4768692371        2.6096260377        3.9000032863
  H         9.6131090334        3.4671477718        4.5843902861
  O         8.5311345058        2.7179063680        3.0516944940
  O        10.1905597255        1.5419031637        4.0355328573
  C         6.6326552882        7.0382948489        3.3282073374
  H         7.5082674956        7.1289998248        4.0070788575
  O         6.4958922634        6.1626572057        2.4479274449
  O         5.7980391684        7.9040843578        3.5840251654
  C         4.7447700830        5.8524785404        6.9353887531
  H         5.7085862008        5.7040540943        7.4370666698
  O         4.3301670381        4.9894455093        6.0819711346
  O         4.1505897874        6.9237980885        7.1400268027
  C         7.5603354229        1.7452814406        7.1878720955
  H         8.1158840311        2.6116602203        7.6593692779
  O         6.7480161818        2.0303964795        6.2254099105
  O         7.8450514343        0.5835553397        7.5910689600
     227
 i =        2, time =        2.000, E =        22.2739041479
 Cd        -8.6166147387        0.4774677172        3.4781973110
 Cd        -5.8739455620       -0.2568704554        7.1123318371
 Cd        -8.4090655042       -2.1570046944        0.3824028308
 Cd        -6.8885664277       -3.2923083338        3.9624433682