     227
 i =        0, time =        0.000, E =       -15.0529209067
 Cd        -8.6216924880        0.4810107428        3.4775887729
 Cd        -5.8723589632       -0.2566559957        7.1151373767
 Cd        -8.4076147924       -2.1531404527        0.3867588804
 Cd        -6.8957642261       -3.2896665849        3.9600318291
 Cd        -3.6930098048       -3.6992689615        7.3819491709
 Cd        -6.4429261463       -6.2347087238        0.4622469067
 Cd        -4.3123952394       -6.8285875372        3.9039095072
 Cd        -6.1141073353        3.8626235599        2.9066844924
 Cd        -3.6048790416        2.8797284733        6.5917986711
 Cd        -6.7531255596        1.1841266196       -0.3182182747
 Cd        -4.0437606329        0.0729837467        3.0511954168
 Cd        -1.7753257667       -0.3121054857        6.8316599018
 Cd        -6.3661028473       -1.4630135273       -3.4383357626
 Cd        -4.3602814436       -3.1214810613       -0.1759283953
 Cd        -2.2424276819       -3.6242998489        3.6335413818
 Cd         0.1757294635       -3.9625201566        7.0364714760
 Cd        -4.2692200317       -5.9860442556       -3.0005266361
 Cd        -2.2482225396       -6.7972628816        0.6786391664
 Cd         0.0669003827       -7.3030327295        3.8545421700
 Cd        -4.0792754193        7.4105475565        2.4175118797
 Cd        -1.6116442377        6.4880648240        6.2478272306
 Cd        -4.3308002626        4.8127262164       -0.6762739309
 Cd        -1.8326132452        3.6694977750        3.1598212265
 Cd         0.4939817277        3.1637060931        6.7202662426
 Cd        -4.5980154021        1.9988297698       -4.0880170010
 Cd        -2.1651194586        1.0165564496       -0.4536921834
 Cd         0.1376109507       -0.0659106884        3.1336818174
 Cd         2.6419074521       -0.6636939286        6.8958319365
 Cd        -4.1515129292       -0.5348426091       -6.9620217917
 Cd        -2.2012490343       -1.8491984656       -3.4894107829
 Cd         0.0359311218       -2.8494155653       -0.0264680683
 Cd         2.4407298775       -3.8224684908        3.5289587884
 Cd         4.5907434619       -4.2169180472        6.5928471603
 Cd        -2.6321953796       -4.5685798778       -6.0773989300
 Cd        -0.3638438279       -6.1221236347       -3.0620735359
 Cd         1.9882729153       -6.8506852632       -0.0376753302
 Cd         4.3604701588       -7.5063202656        3.0981086138
 Cd        -2.4313710890        8.2839908015       -1.2010761441
 Cd         0.1210964618        6.7915494583        2.0748938605
 Cd         2.2602783261        6.3879934074        5.9824457591
 Cd        -2.2743307721        5.5403016700       -4.1096429978
 Cd         0.1552258413        4.6164378819       -0.9814446932
 Cd         2.6173372932        3.7540356816        2.4616712460
 Cd         4.3934694910        2.5024270436        5.6448470259
 Cd        -2.3839877703        3.0961459608       -7.5397423510
 Cd        -0.1308699873        1.7716472388       -4.3458913396
 Cd         2.1522040622        0.8595996928       -0.9600505658
 Cd         4.3027041934       -0.4425155449        2.5248589789
 Cd         6.4943132815       -0.6514444341        6.0110723312
 Cd         0.4032906214       -0.5920449882       -7.0625722312
 Cd         2.1504065746       -1.8410095193       -3.9631978812
 Cd         4.1282053355       -2.9764966895       -0.5499119195
 Cd         6.9189885741       -3.8001688729        2.8840486736
 Cd         1.0693858855       -4.7693596381       -6.7909688629
 Cd         3.6529341800       -5.7620820022       -3.6150795142
 Cd         5.7341856059       -6.5625995016       -0.3323817960
 Cd         2.4532379782        8.1225833618       -1.1556872380
 Cd         4.4025673150        7.2904811152        1.7928276254
 Cd         2.3800547108        5.2453457502       -4.8107637235
 Cd         4.8184663347        4.7191125514       -1.4277792117
 Cd         6.7589411702        3.8390778732        2.0295448973
 Cd         2.6210634084        2.7844913241       -7.7035228004
 Cd         4.8495943395        1.7843685348       -4.5225056138
 Cd         6.7261500983        1.0662237140       -0.9642295531
 Cd         8.8881450478        0.4141445330        2.4369093904
 Cd         4.3615782352       -0.9213178924       -7.7328888960
 Cd         6.7438649008       -1.9767569930       -4.2031112584
 Cd         8.5272445020       -2.6218905711       -0.2551455218
 Se        -9.0557725106        0.2424574140        0.9180313808
 Se        -6.3745872764       -0.6570220647        4.4225742627
 Se        -3.9358548519       -1.3506397678        8.2925868769
 Se        -6.5830028390       -3.7408669090        1.3890860046
 Se        -4.5802302415       -4.2716541219        4.8585926421
 Se        -4.6110671623       -7.7792240778        1.5343213278
 Se        -6.6407812351        3.9866809498        0.4586064126
 Se        -4.0705866514        2.6241591830        3.9150270775
 Se        -1.6315747320        2.0143859544        7.9219454430
 Se        -6.7106235468        0.9827493806       -3.1628202938
 Se        -4.4077684895       -0.2106461950        0.3970531668
 Se        -2.0534879979       -1.1190641497        4.2604482105
 Se         0.4069246601       -1.5676855049        8.0617057342
 Se        -4.4126107232       -3.1307459794       -2.8028288282
 Se        -2.2371864822       -4.0884616040        0.9473336128
 Se         0.1541797359       -4.8148952714        4.4843326207
 Se        -2.4147106009       -7.4199706225       -2.0529393442
 Se        -0.0662571417       -7.8800811154        1.3078284855
 Se        -4.5519687636        7.5920037884       -0.0122560791
 Se        -1.8482840651        6.3647212661        3.5390459072
 Se         0.4006735392        5.8241498358        7.5878867146
 Se        -4.4655945585        4.5529209660       -3.3484418515
 Se        -2.0798083538        3.7153034916        0.3451575142
 Se         0.4973892782        2.6967113851        3.7286137790
 Se         2.7724753484        1.9958260876        7.6298945277
 Se        -4.6126224962        2.0736182894       -6.9031574659
 Se        -2.2770211290        0.8531533747       -3.1284312065
 Se         0.0138865169       -0.1636477002        0.3858468104
 Se         2.3115473387       -1.3198431962        4.0017354986
 Se         4.8624545925       -1.8855864388        7.7371297607
 Se        -2.0700877949       -1.9675257511       -6.4603372509
 Se        -0.0447057629       -3.1582708631       -2.8090856920
 Se         2.2343306950       -4.2299664240        0.7817840723
 Se         4.8342987615       -4.9516929708        4.0974643468
 Se        -0.7556003326       -6.2829108386       -5.8406699955
 Se         1.9243057511       -7.4784768035       -2.6074198353
 Se         4.2543989663       -8.3809591814        0.7363809319
 Se         0.0386925703        7.3677075300       -0.4939635450
 Se         2.3791568525        6.5289221229        3.1400383851
 Se         0.0465974103        4.4270318221       -3.5936563407
 Se         2.5167269427        3.6273521599       -0.0581806204
 Se         4.7705604635        2.4670139639        3.1233546104
 Se         0.0435933033        1.9323944164       -6.9695738842
 Se         2.2733127965        0.7623703678       -3.6584263160
 Se         4.3816175435       -0.2841549253       -0.0177063702
 Se         6.9670500347       -1.1290204494        3.5565582379
 Se         2.2410869402       -2.2702007814       -6.6798205275
 Se         4.3723294721       -3.1971869108       -3.2130677403
 Se         6.4331938555       -4.1098532443        0.4136420186
 Se         4.8503033307        7.5509093293       -0.7463548497
 Se         4.8776288797        4.5477652435       -4.0091414448
 Se         7.0830986217        3.5950723552       -0.6434567968
 Se         4.7810064642        1.5273410534       -7.5566303287
 Se         6.9188050062        0.6130038217       -3.7081238627
 Se         9.1066871843       -0.0609359671       -0.0919647969
  C         6.9955771113       -6.9586634775       -2.8583426301
  H         7.7780160969       -7.1271873265       -3.6573399650
  O         5.8389952916       -6.4652991204       -3.1445809228
  O         7.2920676004       -7.2683568805       -1.6893132711
  C         3.3939431960       -6.2668607509       -6.9513074648
  H         4.3245440932       -6.8689211647       -7.0591687882
  O         3.0202466073       -5.7860511295       -5.7843136273
  O         2.6220129789       -6.1746538788       -7.9242101403
  C         6.3116555909       -2.9071154185       -7.4921130606
  H         7.0978863851       -3.7212906458       -7.4285512081
  O         6.0096715894       -2.3219711192       -6.3505932827
  O         5.9403243477       -2.4750431756       -8.6116316973
  C         8.9837561036       -3.3697375837       -3.4349055328
  H         9.9249943929       -3.8864043165       -3.1840078659
  O         8.5659407989       -3.4209184445       -4.6048832464
  O         8.2714489672       -2.6971151254       -2.5207012617
  C         9.7902109758       -4.6282247391        2.1768529346
  H        10.6284324694       -5.3337138149        2.3552924638
  O         9.7484501532       -4.1824896055        0.9942458601
  O         9.0219926648       -4.5705851174        3.1873629795
  C        -2.8252708508       -8.8894178348        5.3653894160
  H        -2.3915771747       -9.8892286280        5.4446685031
  O        -1.9808601030       -7.9304545651        5.0436955975
  O        -4.0908415257       -8.7280019527        5.4030844137
  C         3.0047406823       -8.6887063298        5.2919739424
  H         2.6853413808       -9.0312323512        6.2714246943
  O         1.9985977812       -8.3553887881        4.5599054594
  O         4.2197147413       -8.6069092298        4.9235206312
  C         2.8732291572       -5.7090624943        8.2322507888
  H         2.4095730423       -6.3582442170        8.9295273658
  O         2.2236878889       -4.8031284854        7.6183804854
  O         4.1525405945       -5.8988692439        8.1468427445
  C        -2.5324052264       -5.9090323801        8.5168983878
  H        -2.0058427467       -6.7599986745        9.0204193621
  O        -1.9189018681       -5.2527647032        7.5983339134
  O        -3.6521974131       -5.4981014961        8.8936623702
  C        -6.8661340661        2.3082426882        7.3884767521
  H        -7.2433530482        3.2983326111        7.3747512577
  O        -5.6189307919        2.1553364867        7.5292857639
  O        -7.6694328727        1.3672322100        7.2032576312
  C        -4.1128935570        6.2776012356        7.2258109093
  H        -5.2184092536        6.2949225170        7.4003980339
  O        -3.5215502414        5.2331222329        6.7794929280
  O        -3.5956064510        7.4679880815        7.3184340370
  C        -6.2584500423        7.1467273309        4.0778865765
  H        -7.2018864753        7.1620259062        4.6862261037
  O        -5.8042352338        6.0508881806        3.6277903665
  O        -5.6141473350        8.2227071687        3.8530055117
  C        -9.2670155991        2.9624473135        4.4549609073
  H        -9.7760873251        3.8307467380        4.7753730710
  O        -8.0580447847        3.0137717908        4.1153681461
  O       -10.0869615960        1.9755230626        4.3964141791
  C        -9.5997958208       -3.5202239981        4.2555074891
  H       -10.6284324694       -3.6062117458        4.7363993397
  O        -9.3836198173       -2.7271085544        3.2939504316
  O        -8.6749593009       -4.3055307223        4.7674147240
  C        -5.4063829718       -6.0836320759       -6.1576393485
  H        -6.0390997038       -6.5934387315       -6.8768176703
  O        -5.3157147411       -6.5042627408       -4.9638375967
  O        -4.7997118332       -5.0931497246       -6.6842330004
  C        -7.4812021438       -7.2683192216       -1.8337008205
  H        -7.8430239833       -7.7214409635       -2.7403108931
  O        -6.3847231004       -6.5596142310       -1.8855223803
  O        -8.0870004405       -7.4369608581       -0.7449951352
  C        -9.2637717352       -3.4248031045       -2.1287629167
  H        -9.5435102925       -4.0726156799       -2.9624854104
  O        -8.1685743898       -2.7562864935       -2.2769679175
  O        -9.8293124780       -3.4993302663       -1.0042472880
  C        -6.7198117275       -1.5155721631       -7.0057360974
  H        -7.7266400310       -1.9701098143       -7.1795729881
  O        -6.3208037730       -1.2812141421       -5.7891801227
  O        -6.0546670581       -1.2647410752       -8.0219575549
  C        -1.9610306020        5.6962737072       -7.4797868569
  H        -1.8068881661        6.7616764611       -7.4798700689
  O        -2.4613788677        5.1953402046       -6.4147373301
  O        -1.7592038190        5.0404242691       -8.5376948407
  C        -1.7153677193        9.0065729983       -3.7807068554
  H        -1.3518565997        9.2891789052       -4.8285272378
  O        -1.7735635219        7.7204009534       -3.5311974415
  O        -1.9589811591        9.8892286280       -2.9296575010
  C         2.5176986766        8.6527359013       -4.1276241396
  H         2.7356319561        9.0838176512       -5.0545617483
  O         2.0941304229        7.4607563111       -4.0382054964
  O         2.6632020791        9.4136986823       -3.1567247192
  C         1.7405814703        5.3615037054       -8.2026998584
  H         1.4592813282        6.4433815072       -8.3446733349
  O         2.2712544771        5.0744229803       -7.0359036782
  O         1.5374971892        4.4786315137       -9.0204193621
  C         9.4791869119        2.6134878200        3.9079418032
  H         9.6264681644        3.4611325178        4.5867541287
  O         8.5294682966        2.7206869475        3.0468687327
  O        10.1884170796        1.5361363159        4.0354546634
  C         6.6320899766        7.0427804887        3.3240585285
  H         7.5183451153        7.1103565644        4.0025867163
  O         6.4921259472        6.1579139584        2.4473334656
  O         5.8014508194        7.8970951585        3.5804466065
  C         4.7468288793        5.8510846562        6.9391041765
  H         5.6837062732        5.7110173508        7.4566454645
  O         4.3315486404        4.9881730889        6.0840680113
  O         4.1390624477        6.9214380767        7.1338855679
  C         7.5642974957        1.7429307679        7.1823006621
  H         8.1116275708        2.6102062210        7.6466333920
  O         6.7423080014        2.0330978891        6.2208765696
  O         7.8434776238        0.5800715711        7.5931108165
     227
 i =        1, time =        1.000, E =       -15.0622160875
 Cd        -8.6193460544        0.4796503215        3.4771630779
 Cd        -5.8715222730       -0.2571930233        7.1144050037
 Cd        -8.4082244871       -2.1541291549        0.3852377228
 Cd        -6.8927384342       -3.2918146371        3.9610944216
 Cd        -3.6901780052       -3.7003851301        7.3823923716
 Cd        -6.4419744050       -6.2357630805        0.4642697146
 Cd        -4.3123537641       -6.8296300577        3.9052099968
 Cd        -6.1163813242        3.8609323852        2.9055522155
 Cd        -3.6066162267        2.8812273755        6.5904186086
 Cd        -6.7534323268        1.1872364790       -0.3192239364
 Cd        -4.0444181319        0.0755186026        3.0501881510
 Cd        -1.7741859081       -0.3125661303        6.8335912743
 Cd        -6.3660962157       -1.4624158245       -3.4401756098
 Cd        -4.3613441547       -3.1217895135       -0.1745554411
 Cd        -2.2426138806       -3.6215601947        3.6336122517
 Cd         0.1787151259       -3.9615879308        7.0369403249
 Cd        -4.2693690591       -5.9882445100       -2.9988657371
 Cd        -2.2486939647       -6.7966357408        0.6791692309
 Cd         0.0677927357       -7.3029880618        3.8542279405
 Cd        -4.0803087409        7.4119353734        2.4182559521
 Cd        -1.6107796314        6.4879207505        6.2509774919
 Cd        -4.3325379812        4.8128063912       -0.6769555245
 Cd        -1.8303987652        3.6695923039        3.1589470538
 Cd         0.4898051352        3.1633378405        6.7205454325
 Cd        -4.5996476622        2.0001121275       -4.0890034124
 Cd        -2.1628935589        1.0181208867       -0.4517572389
 Cd         0.1384321285       -0.0681746585        3.1344181643
 Cd         2.6424429017       -0.6635629366        6.8959173636
 Cd        -4.1540864240       -0.5351538703       -6.9611315503
 Cd        -2.2031797655       -1.8491058688       -3.4900238382
 Cd         0.0358080443       -2.8474900613       -0.0250985921
 Cd         2.4397094892       -3.8215468839        3.5304697536
 Cd         4.5938356559       -4.2151983731        6.5946848504
 Cd        -2.6316901012       -4.5699868795       -6.0785499758
 Cd        -0.3609696679       -6.1210775450       -3.0631333308
 Cd         1.9864013268       -6.8523554432       -0.0374648644
 Cd         4.3578654396       -7.5050663011        3.0974092641
 Cd        -2.4320618186        8.2867256645       -1.2003594608
 Cd         0.1211453079        6.7911417643        2.0748015331
 Cd         2.2581041500        6.3879344251        5.9826656053
 Cd        -2.2740448646        5.5405434285       -4.1121257687
 Cd         0.1544587021        4.6148676512       -0.9823501085
 Cd         2.6165277153        3.7533468097        2.4610183927
 Cd         4.3939260242        2.5015333561        5.6446940274
 Cd        -2.3864860861        3.0937286093       -7.5398902154
 Cd        -0.1312642093        1.7709268227       -4.3474233375
 Cd         2.1531793399        0.8600206270       -0.9632056625
 Cd         4.3034689400       -0.4402569132        2.5248018066
 Cd         6.4920328131       -0.6517801635        6.0104877080
 Cd         0.4042683993       -0.5927793531       -7.0621294534
 Cd         2.1513208567       -1.8410957926       -3.9633362280
 Cd         4.1299811495       -2.9780253712       -0.5482342754
 Cd         6.9198243911       -3.7969821097        2.8855209212
 Cd         1.0695626800       -4.7692181390       -6.7906670493
 Cd         3.6506326812       -5.7625223787       -3.6177256247
 Cd         5.7329770364       -6.5640345227       -0.3327849981
 Cd         2.4551303212        8.1222972587       -1.1566243775
 Cd         4.4053544827        7.2897904839        1.7948340047
 Cd         2.3804074282        5.2452187013       -4.8087302534
 Cd         4.8189940795        4.7184554006       -1.4284197761
 Cd         6.7582369629        3.8401495842        2.0311445819
 Cd         2.6218074051        2.7829106904       -7.7033791373
 Cd         4.8493633224        1.7846661928       -4.5231253286
 Cd         6.7277303194        1.0650262273       -0.9631149322
 Cd         8.8867436880        0.4155831359        2.4347916341
 Cd         4.3618155363       -0.9226081898       -7.7309175649
 Cd         6.7427838561       -1.9756195293       -4.2012728708
 Cd         8.5291306894       -2.6208054775       -0.2528002470
 Se        -9.0547421380        0.2428530503        0.9183289923
 Se        -6.3727508851       -0.6564998541        4.4183000785
 Se        -3.9345459165       -1.3489582359        8.2964816946
 Se        -6.5831129858       -3.7425300161        1.3880798375
 Se        -4.5790659662       -4.2748334243        4.8597185822
 Se        -4.6122264551       -7.7765378204        1.5328525805
 Se        -6.6422294776        3.9855515562        0.4577265001
 Se        -4.0719420559        2.6208463905        3.9142776488
 Se        -1.6333334063        2.0117287977        7.9250657340
 Se        -6.7116273903        0.9828720004       -3.1654609127
 Se        -4.4070542167       -0.2111833432        0.3949032419
 Se        -2.0531357880       -1.1153521808        4.2593705025
 Se         0.4060021576       -1.5661655385        8.0650373834
 Se        -4.4160536183       -3.1299685617       -2.8046515202
 Se        -2.2374515437       -4.0915804086        0.9472037622
 Se         0.1530651837       -4.8127511956        4.4857874734
 Se        -2.4165697367       -7.4205630897       -2.0539582252
 Se        -0.0669713345       -7.8790879357        1.3095468368
 Se        -4.5520754950        7.5948309642       -0.0125746622
 Se        -1.8467232158        6.3632934462        3.5400459308
 Se         0.4036970480        5.8261691846        7.5858128382
 Se        -4.4659906818        4.5539496367       -3.3489444961
 Se        -2.0809754888        3.7152502386        0.3431712954
 Se         0.4982113763        2.6970149007        3.7286618906
 Se         2.7717885395        1.9958595708        7.6261618758
 Se        -4.6131305663        2.0747533843       -6.9049018732
 Se        -2.2788732445        0.8535126387       -3.1260976968
 Se         0.0145484988       -0.1632224467        0.3853940643
 Se         2.3129731900       -1.3189367615        3.9989844608
 Se         4.8631439128       -1.8843084650        7.7353597646
 Se        -2.0702224825       -1.9664096935       -6.4603679278
 Se        -0.0447379075       -3.1599078878       -2.8087873380
 Se         2.2323277041       -4.2314410288        0.7809307345
 Se         4.8362319133       -4.9530699453        4.0967202289
 Se        -0.7551499397       -6.2847628171       -5.8413918777
 Se         1.9250065898       -7.4789959969       -2.6076062092
 Se         4.2593724706       -8.3791322181        0.7364275539
 Se         0.0356588152        7.3686014904       -0.4913000449
 Se         2.3808927441        6.5252175531        3.1424373523
 Se         0.0437123520        4.4288113718       -3.5939836311
 Se         2.5163725944        3.6274445774       -0.0568086621
 Se         4.7726739038        2.4661949794        3.1253360007
 Se         0.0455212308        1.9299172225       -6.9704737285
 Se         2.2758028846        0.7648190269       -3.6570533601
 Se         4.3766303411       -0.2853722455       -0.0177778130
 Se         6.9676998980       -1.1294396392        3.5582577132
 Se         2.2369551923       -2.2681395940       -6.6837592189
 Se         4.3737004968       -3.1974816936       -3.2156372654
 Se         6.4331299400       -4.1116774213        0.4130032415
 Se         4.8514843425        7.5524110371       -0.7458863170
 Se         4.8774518952        4.5489680941       -4.0122010553
 Se         7.0855508166        3.5934340877       -0.6428823964
 Se         4.7816357683        1.5263986266       -7.5555439079
 Se         6.9185047245        0.6112258038       -3.7073610722
 Se         9.1068400949       -0.0627118198       -0.0922954522
  C         6.9966732909       -6.9498123743       -2.8612708334
  H         7.7649322095       -7.1224747738       -3.6684216540
  O         5.8439164114       -6.4672097355       -3.1400703218
  O         7.2883959647       -7.2740632861       -1.6935003324
  C         3.3950781088       -6.2672910623       -6.9491660364
  H         4.3444066225       -6.8936096686       -7.0753272229
  O         3.0188120930       -5.7908392052       -5.7818993557
  O         2.6176519963       -6.1688410271       -7.9239367714
  C         6.3106274101       -2.9078599344       -7.4910245101
  H         7.1299137504       -3.7048862282       -7.4466889051
  O         6.0085452618       -2.3181437040       -6.3473740563
  O         5.9392875608       -2.4741775572       -8.6124226991
  C         8.9774261002       -3.3708863155       -3.4296379265
  H         9.9250180562       -3.8774829974       -3.1826003730
  O         8.5681861661       -3.4148106987       -4.6045879169
  O         8.2716770888       -2.6966851840       -2.5199948127
  C         9.7980536117       -4.6251926483        2.1809897473
  H        10.6408655401       -5.3318691344        2.3887999993
  O         9.7470656884       -4.1804265136        0.9925639375
  O         9.0284539390       -4.5680688761        3.1870249238
  C        -2.8217227430       -8.8884162350        5.3598598761
  H        -2.4154187803       -9.9024293192        5.4343946394
  O        -1.9847185827       -7.9306100287        5.0422853757
  O        -4.0904588048       -8.7273568108        5.4043659507
  C         2.9969160638       -8.6915994332        5.2874302090
  H         2.6967725338       -9.0398269484        6.2934215078
  O         1.9992782875       -8.3577989326        4.5593850473
  O         4.2233748104       -8.6004650834        4.9153037912
  C         2.8792926837       -5.7053284920        8.2324099925
  H         2.3955873073       -6.3773024893        8.9303283437
  O         2.2189208147       -4.8087922009        7.6162809617
  O         4.1498447982       -5.9033986979        8.1535067358
  C        -2.5347078604       -5.9173504911        8.5219802109
  H        -2.0052498086       -6.7390725628        9.0096019785
  O        -1.9214324141       -5.2582459669        7.5983168018
  O        -3.6522399299       -5.5083279520        8.8926814603
  C        -6.8630634670        2.3027095357        7.3891766054
  H        -7.2086193538        3.3071349018        7.3885257928
  O        -5.6212364598        2.1590771094        7.5336396248
  O        -7.6694765665        1.3702131082        7.1999489586
  C        -4.1170036244        6.2827907417        7.2281707639
  H        -5.2418933127        6.2896177269        7.3832000201
  O        -3.5266036060        5.2290081716        6.7737943195
  O        -3.5910147387        7.4672908205        7.3180024169
  C        -6.2567328497        7.1462250786        4.0781003281
  H        -7.2111390447        7.1649409639        4.6689854642
  O        -5.8090089496        6.0478084028        3.6278314742
  O        -5.6126513064        8.2206530480        3.8486364657
  C        -9.2741977607        2.9617442192        4.4604840966
  H        -9.7855372140        3.8838940690        4.7760086716
  O        -8.0587727058        3.0118903766        4.1192441875
  O       -10.0810067948        1.9791811508        4.3921538866
  C        -9.6032643864       -3.5282115488        4.2551578990
  H       -10.5971720209       -3.6001750875        4.7566807035
  O        -9.3832319320       -2.7227789207        3.2942838611
  O        -8.6784696815       -4.3016014662        4.7629236535
  C        -5.4081385661       -6.0792192108       -6.1561788293
  H        -6.0546960796       -6.5859836395       -6.8890942905
  O        -5.3109637302       -6.5040356616       -4.9651045454
  O        -4.7983027497       -5.0927118495       -6.6852617155
  C        -7.4874842570       -7.2705496786       -1.8347981356
  H        -7.8388434959       -7.7173330376       -2.7530342297
  O        -6.3886989329       -6.5549423650       -1.8842373337
  O        -8.0716151006       -7.4408486314       -0.7457771614
  C        -9.2562567743       -3.4270062031       -2.1219689853
  H        -9.5270787848       -4.0663584857       -2.9594189931
  O        -8.1697865395       -2.7553744892       -2.2726889116
  O        -9.8241579998       -3.4939221066       -1.0091656019
  C        -6.7207013811       -1.5101583253       -7.0045853088
  H        -7.7450574417       -1.9674181007       -7.1698505571
  O        -6.3197640580       -1.2781428159       -5.7989731949
  O        -6.0632063539       -1.2634504163       -8.0154555337
  C        -1.9628931303        5.6954868242       -7.4853035923
  H        -1.7770888886        6.7764005651       -7.4923242406
  O        -2.4611462680        5.1866636481       -6.4086767178
  O        -1.7564374614        5.0403066083       -8.5282822002
  C        -1.7168790638        9.0074935500       -3.7839155110
  H        -1.3493405476        9.2660238074       -4.8465614694
  O        -1.7701085734        7.7194045773       -3.5246040098
  O        -1.9637682955        9.8895085452       -2.9407709264
  C         2.5062279746        8.6538741876       -4.1272908763
  H         2.7131102182        9.0638249498       -5.0476060874
  O         2.0944697134        7.4531757144       -4.0307264437
  O         2.6627270494        9.4111217533       -3.1551711733
  C         1.7411422971        5.3672410471       -8.1968542706
  H         1.4358383610        6.4416008070       -8.3632925476
  O         2.2781643742        5.0765366757       -7.0406036265
  O         1.5312976258        4.4832995480       -9.0175218613
  C         9.4768611874        2.6096251023        3.9000054929
  H         9.6131090334        3.4671477718        4.5843902861
  O         8.5279447908        2.7173322580        3.0491364699
  O        10.1884779634        1.5401007153        4.0330241841
  C         6.6326523046        7.0382887459        3.3282099304
  H         7.5082674956        7.1289998248        4.0070788575
  O         6.4944250576        6.1603606090        2.4465497917
  O         5.7954230523        7.9029710439        3.5812130482
  C         4.7447718070        5.8524758322        6.9353827895
  H         5.7085862008        5.7040540943        7.4370666698
  O         4.3285383402        4.9885335838        6.0814956502
  O         4.1455662148        6.9223741331        7.1370849861
  C         7.5603339938        1.7452817364        7.1878652896
  H         8.1158840311        2.6116602203        7.6593692779
  O         6.7458108716        2.0302099096        6.2244379001
  O         7.8434648665        0.5821140058        7.5894526031
     227
 i =        2, time =        2.000, E =       -15.0775257706
 Cd        -8.6170114423        0.4783496613        3.4767399288
 Cd        -5.8707106297       -0.2576471682        7.1136837935
 Cd        -8.4089014100       -2.1551531279        0.3836857904
 Cd        -6.8897273198       -3.2939582034        3.9621388660