     227
 i =        0, time =        0.000, E =        -5.0891172145
 Cd        -8.6216924880        0.4810107428        3.4775887729
 Cd        -5.8723589632       -0.2566559957        7.1151373767
 Cd        -8.4076147924       -2.1531404527        0.3867588804
 Cd        -6.8957642261       -3.2896665849        3.9600318291
 Cd        -3.6930098048       -3.6992689615        7.3819491709
 Cd        -6.4429261463       -6.2347087238        0.4622469067
 Cd        -4.3123952394       -6.8285875372        3.9039095072
 Cd        -6.1141073353        3.8626235599        2.9066844924
 Cd        -3.6048790416        2.8797284733        6.5917986711
 Cd        -6.7531255596        1.1841266196       -0.3182182747
 Cd        -4.0437606329        0.0729837467        3.0511954168
 Cd        -1.7753257667       -0.3121054857        6.8316599018
 Cd        -6.3661028473       -1.4630135273       -3.4383357626
 Cd        -4.3602814436       -3.1214810613       -0.1759283953
 Cd        -2.2424276819       -3.6242998489        3.6335413818
 Cd         0.1757294635       -3.9625201566        7.0364714760
 Cd        -4.2692200317       -5.9860442556       -3.0005266361
 Cd        -2.2482225396       -6.7972628816        0.6786391664
 Cd         0.0669003827       -7.3030327295        3.8545421700
 Cd        -4.0792754193        7.4105475565        2.4175118797
 Cd        -1.6116442377        6.4880648240        6.2478272306
 Cd        -4.3308002626        4.8127262164       -0.6762739309
 Cd        -1.8326132452        3.6694977750        3.1598212265
 Cd         0.4939817277        3.1637060931        6.7202662426
 Cd        -4.5980154021        1.9988297698       -4.0880170010
 Cd        -2.1651194586        1.0165564496       -0.4536921834
 Cd         0.1376109507       -0.0659106884        3.1336818174
 Cd         2.6419074521       -0.6636939286        6.8958319365
 Cd        -4.1515129292       -0.5348426091       -6.9620217917
 Cd        -2.2012490343       -1.8491984656       -3.4894107829
 Cd         0.0359311218       -2.8494155653       -0.0264680683
 Cd         2.4407298775       -3.8224684908        3.5289587884
 Cd         4.5907434619       -4.2169180472        6.5928471603
 Cd        -2.6321953796       -4.5685798778       -6.0773989300
 Cd        -0.3638438279       -6.1221236347       -3.0620735359
 Cd         1.9882729153       -6.8506852632       -0.0376753302
 Cd         4.3604701588       -7.5063202656        3.0981086138
 Cd        -2.4313710890        8.2839908015       -1.2010761441
 Cd         0.1210964618        6.7915494583        2.0748938605
 Cd         2.2602783261        6.3879934074        5.9824457591
 Cd        -2.2743307721        5.5403016700       -4.1096429978
 Cd         0.1552258413        4.6164378819       -0.9814446932
 Cd         2.6173372932        3.7540356816        2.4616712460
 Cd         4.3934694910        2.5024270436        5.6448470259
 Cd        -2.3839877703        3.0961459608       -7.5397423510
 Cd        -0.1308699873        1.7716472388       -4.3458913396
 Cd         2.1522040622        0.8595996928       -0.9600505658
 Cd         4.3027041934       -0.4425155449        2.5248589789
 Cd         6.4943132815       -0.6514444341        6.0110723312
 Cd         0.4032906214       -0.5920449882       -7.0625722312
 Cd         2.1504065746       -1.8410095193       -3.9631978812
 Cd         4.1282053355       -2.9764966895       -0.5499119195
 Cd         6.9189885741       -3.8001688729        2.8840486736
 Cd         1.0693858855       -4.7693596381       -6.7909688629
 Cd         3.6529341800       -5.7620820022       -3.6150795142
 Cd         5.7341856059       -6.5625995016       -0.3323817960
 Cd         2.4532379782        8.1225833618       -1.1556872380
 Cd         4.4025673150        7.2904811152        1.7928276254
 Cd         2.3800547108        5.2453457502       -4.8107637235
 Cd         4.8184663347        4.7191125514       -1.4277792117
 Cd         6.7589411702        3.8390778732        2.0295448973
 Cd         2.6210634084        2.7844913241       -7.7035228004
 Cd         4.8495943395        1.7843685348       -4.5225056138
 Cd         6.7261500983        1.0662237140       -0.9642295531
 Cd         8.8881450478        0.4141445330        2.4369093904
 Cd         4.3615782352       -0.9213178924       -7.7328888960
 Cd         6.7438649008       -1.9767569930       -4.2031112584
 Cd         8.5272445020       -2.6218905711       -0.2551455218
 Se        -9.0557725106        0.2424574140        0.9180313808
 Se        -6.3745872764       -0.6570220647        4.4225742627
 Se        -3.9358548519       -1.3506397678        8.2925868769
 Se        -6.5830028390       -3.7408669090        1.3890860046
 Se        -4.5802302415       -4.2716541219        4.8585926421
 Se        -4.6110671623       -7.7792240778        1.5343213278
 Se        -6.6407812351        3.9866809498        0.4586064126
 Se        -4.0705866514        2.6241591830        3.9150270775
 Se        -1.6315747320        2.0143859544        7.9219454430
 Se        -6.7106235468        0.9827493806       -3.1628202938
 Se        -4.4077684895       -0.2106461950        0.3970531668
 Se        -2.0534879979       -1.1190641497        4.2604482105
 Se         0.4069246601       -1.5676855049        8.0617057342
 Se        -4.4126107232       -3.1307459794       -2.8028288282
 Se        -2.2371864822       -4.0884616040        0.9473336128
 Se         0.1541797359       -4.8148952714        4.4843326207
 Se        -2.4147106009       -7.4199706225       -2.0529393442
 Se        -0.0662571417       -7.8800811154        1.3078284855
 Se        -4.5519687636        7.5920037884       -0.0122560791
 Se        -1.8482840651        6.3647212661        3.5390459072
 Se         0.4006735392        5.8241498358        7.5878867146
 Se        -4.4655945585        4.5529209660       -3.3484418515
 Se        -2.0798083538        3.7153034916        0.3451575142
 Se         0.4973892782        2.6967113851        3.7286137790
 Se         2.7724753484        1.9958260876        7.6298945277
 Se        -4.6126224962        2.0736182894       -6.9031574659
 Se        -2.2770211290        0.8531533747       -3.1284312065
 Se         0.0138865169       -0.1636477002        0.3858468104
 Se         2.3115473387       -1.3198431962        4.0017354986
 Se         4.8624545925       -1.8855864388        7.7371297607
 Se        -2.0700877949       -1.9675257511       -6.4603372509
 Se        -0.0447057629       -3.1582708631       -2.8090856920
 Se         2.2343306950       -4.2299664240        0.7817840723
 Se         4.8342987615       -4.9516929708        4.0974643468
 Se        -0.7556003326       -6.2829108386       -5.8406699955
 Se         1.9243057511       -7.4784768035       -2.6074198353
 Se         4.2543989663       -8.3809591814        0.7363809319
 Se         0.0386925703        7.3677075300       -0.4939635450
 Se         2.3791568525        6.5289221229        3.1400383851
 Se         0.0465974103        4.4270318221       -3.5936563407
 Se         2.5167269427        3.6273521599       -0.0581806204
 Se         4.7705604635        2.4670139639        3.1233546104
 Se         0.0435933033        1.9323944164       -6.9695738842
 Se         2.2733127965        0.7623703678       -3.6584263160
 Se         4.3816175435       -0.2841549253       -0.0177063702
 Se         6.9670500347       -1.1290204494        3.5565582379
 Se         2.2410869402       -2.2702007814       -6.6798205275
 Se         4.3723294721       -3.1971869108       -3.2130677403
 Se         6.4331938555       -4.1098532443        0.4136420186
 Se         4.8503033307        7.5509093293       -0.7463548497
 Se         4.8776288797        4.5477652435       -4.0091414448
 Se         7.0830986217        3.5950723552       -0.6434567968
 Se         4.7810064642        1.5273410534       -7.5566303287
 Se         6.9188050062        0.6130038217       -3.7081238627
 Se         9.1066871843       -0.0609359671       -0.0919647969
  C         6.9955771113       -6.9586634775       -2.8583426301
  H         7.7780160969       -7.1271873265       -3.6573399650
  O         5.8389952916       -6.4652991204       -3.1445809228
  O         7.2920676004       -7.2683568805       -1.6893132711
  C         3.3939431960       -6.2668607509       -6.9513074648
  H         4.3245440932       -6.8689211647       -7.0591687882
  O         3.0202466073       -5.7860511295       -5.7843136273
  O         2.6220129789       -6.1746538788       -7.9242101403
  C         6.3116555909       -2.9071154185       -7.4921130606
  H         7.0978863851       -3.7212906458       -7.4285512081
  O         6.0096715894       -2.3219711192       -6.3505932827
  O         5.9403243477       -2.4750431756       -8.6116316973
  C         8.9837561036       -3.3697375837       -3.4349055328
  H         9.9249943929       -3.8864043165       -3.1840078659
  O         8.5659407989       -3.4209184445       -4.6048832464
  O         8.2714489672       -2.6971151254       -2.5207012617
  C         9.7902109758       -4.6282247391        2.1768529346
  H        10.6284324694       -5.3337138149        2.3552924638
  O         9.7484501532       -4.1824896055        0.9942458601
  O         9.0219926648       -4.5705851174        3.1873629795
  C        -2.8252708508       -8.8894178348        5.3653894160
  H        -2.3915771747       -9.8892286280        5.4446685031
  O        -1.9808601030       -7.9304545651        5.0436955975
  O        -4.0908415257       -8.7280019527        5.4030844137
  C         3.0047406823       -8.6887063298        5.2919739424
  H         2.6853413808       -9.0312323512        6.2714246943
  O         1.9985977812       -8.3553887881        4.5599054594
  O         4.2197147413       -8.6069092298        4.9235206312
  C         2.8732291572       -5.7090624943        8.2322507888
  H         2.4095730423       -6.3582442170        8.9295273658
  O         2.2236878889       -4.8031284854        7.6183804854
  O         4.1525405945       -5.8988692439        8.1468427445
  C        -2.5324052264       -5.9090323801        8.5168983878
  H        -2.0058427467       -6.7599986745        9.0204193621
  O        -1.9189018681       -5.2527647032        7.5983339134
  O        -3.6521974131       -5.4981014961        8.8936623702
  C        -6.8661340661        2.3082426882        7.3884767521
  H        -7.2433530482        3.2983326111        7.3747512577
  O        -5.6189307919        2.1553364867        7.5292857639
  O        -7.6694328727        1.3672322100        7.2032576312
  C        -4.1128935570        6.2776012356        7.2258109093
  H        -5.2184092536        6.2949225170        7.4003980339
  O        -3.5215502414        5.2331222329        6.7794929280
  O        -3.5956064510        7.4679880815        7.3184340370
  C        -6.2584500423        7.1467273309        4.0778865765
  H        -7.2018864753        7.1620259062        4.6862261037
  O        -5.8042352338        6.0508881806        3.6277903665
  O        -5.6141473350        8.2227071687        3.8530055117
  C        -9.2670155991        2.9624473135        4.4549609073
  H        -9.7760873251        3.8307467380        4.7753730710
  O        -8.0580447847        3.0137717908        4.1153681461
  O       -10.0869615960        1.9755230626        4.3964141791
  C        -9.5997958208       -3.5202239981        4.2555074891
  H       -10.6284324694       -3.6062117458        4.7363993397
  O        -9.3836198173       -2.7271085544        3.2939504316
  O        -8.6749593009       -4.3055307223        4.7674147240
  C        -5.4063829718       -6.0836320759       -6.1576393485
  H        -6.0390997038       -6.5934387315       -6.8768176703
  O        -5.3157147411       -6.5042627408       -4.9638375967
  O        -4.7997118332       -5.0931497246       -6.6842330004
  C        -7.4812021438       -7.2683192216       -1.8337008205
  H        -7.8430239833       -7.7214409635       -2.7403108931
  O        -6.3847231004       -6.5596142310       -1.8855223803
  O        -8.0870004405       -7.4369608581       -0.7449951352
  C        -9.2637717352       -3.4248031045       -2.1287629167
  H        -9.5435102925       -4.0726156799       -2.9624854104
  O        -8.1685743898       -2.7562864935       -2.2769679175
  O        -9.8293124780       -3.4993302663       -1.0042472880
  C        -6.7198117275       -1.5155721631       -7.0057360974
  H        -7.7266400310       -1.9701098143       -7.1795729881
  O        -6.3208037730       -1.2812141421       -5.7891801227
  O        -6.0546670581       -1.2647410752       -8.0219575549
  C        -1.9610306020        5.6962737072       -7.4797868569
  H        -1.8068881661        6.7616764611       -7.4798700689
  O        -2.4613788677        5.1953402046       -6.4147373301
  O        -1.7592038190        5.0404242691       -8.5376948407
  C        -1.7153677193        9.0065729983       -3.7807068554
  H        -1.3518565997        9.2891789052       -4.8285272378
  O        -1.7735635219        7.7204009534       -3.5311974415
  O        -1.9589811591        9.8892286280       -2.9296575010
  C         2.5176986766        8.6527359013       -4.1276241396
  H         2.7356319561        9.0838176512       -5.0545617483
  O         2.0941304229        7.4607563111       -4.0382054964
  O         2.6632020791        9.4136986823       -3.1567247192
  C         1.7405814703        5.3615037054       -8.2026998584
  H         1.4592813282        6.4433815072       -8.3446733349
  O         2.2712544771        5.0744229803       -7.0359036782
  O         1.5374971892        4.4786315137       -9.0204193621
  C         9.4791869119        2.6134878200        3.9079418032
  H         9.6264681644        3.4611325178        4.5867541287
  O         8.5294682966        2.7206869475        3.0468687327
  O        10.1884170796        1.5361363159        4.0354546634
  C         6.6320899766        7.0427804887        3.3240585285
  H         7.5183451153        7.1103565644        4.0025867163
  O         6.4921259472        6.1579139584        2.4473334656
  O         5.8014508194        7.8970951585        3.5804466065
  C         4.7468288793        5.8510846562        6.9391041765
  H         5.6837062732        5.7110173508        7.4566454645
  O         4.3315486404        4.9881730889        6.0840680113
  O         4.1390624477        6.9214380767        7.1338855679
  C         7.5642974957        1.7429307679        7.1823006621
  H         8.1116275708        2.6102062210        7.6466333920
  O         6.7423080014        2.0330978891        6.2208765696
  O         7.8434776238        0.5800715711        7.5931108165
     227
 i =        1, time =        1.000, E =        -5.1098518497
 Cd        -8.6193203769        0.4795980653        3.4772451519
 Cd        -5.8717056767       -0.2571496956        7.1143255198
 Cd        -8.4082294849       -2.1542359574        0.3851641920
 Cd        -6.8926676276       -3.2917187656        3.9611096067
 Cd        -3.6901909221       -3.7004880883        7.3822942728
 Cd        -6.4420237325       -6.2357265659        0.4642941838
 Cd        -4.3123281790       -6.8295705291        3.9053502192
 Cd        -6.1164398590        3.8609180861        2.9057261507
 Cd        -3.6067258150        2.8812711877        6.5903054700
 Cd        -6.7534166581        1.1872570461       -0.3192299532
 Cd        -4.0444759398        0.0755163676        3.0501452271
 Cd        -1.7741910196       -0.3126858170        6.8335215110
 Cd        -6.3661275227       -1.4626736446       -3.4401706470
 Cd        -4.3614541016       -3.1217220998       -0.1745232333
 Cd        -2.2425923347       -3.6216958922        3.6335902349
 Cd         0.1785886829       -3.9616418873        7.0369343330
 Cd        -4.2694577702       -5.9880699868       -2.9988677536
 Cd        -2.2488612511       -6.7965381563        0.6791123539
 Cd         0.0677284052       -7.3030992320        3.8542811758
 Cd        -4.0801610629        7.4119061965        2.4184383065
 Cd        -1.6108977877        6.4880525022        6.2508495452
 Cd        -4.3325153258        4.8128509656       -0.6769302319
 Cd        -1.8303905746        3.6696537768        3.1588825035
 Cd         0.4898099920        3.1633757028        6.7204428757
 Cd        -4.5994583399        2.0001258138       -4.0891221595
 Cd        -2.1629372245        1.0182051039       -0.4517400014
 Cd         0.1384124278       -0.0681001060        3.1343874802
 Cd         2.6424391437       -0.6635312060        6.8958058865
 Cd        -4.1540897359       -0.5351245099       -6.9611230198
 Cd        -2.2031989298       -1.8490345744       -3.4900979219
 Cd         0.0357931791       -2.8474900723       -0.0251054137
 Cd         2.4397475942       -3.8216938215        3.5304215734
 Cd         4.5938399691       -4.2152221167        6.5946884286
 Cd        -2.6317794297       -4.5699000225       -6.0785153472
 Cd        -0.3609295618       -6.1209410489       -3.0631516611
 Cd         1.9864650940       -6.8523058724       -0.0374248338
 Cd         4.3578972448       -7.5048162120        3.0973243075
 Cd        -2.4319328065        8.2868017227       -1.2004193887
 Cd         0.1211437036        6.7911984896        2.0746104472
 Cd         2.2581394946        6.3879852347        5.9824222754
 Cd        -2.2739511750        5.5406273885       -4.1121704865
 Cd         0.1544518786        4.6148741862       -0.9822573525
 Cd         2.6164694384        3.7534695015        2.4611968127
 Cd         4.3939479443        2.5015413228        5.6447893037
 Cd        -2.3863529996        3.0936510080       -7.5399507228
 Cd        -0.1312512403        1.7709326908       -4.3473853050
 Cd         2.1531310486        0.8600870803       -0.9631954594
 Cd         4.3035513858       -0.4402348486        2.5249557044
 Cd         6.4920176910       -0.6517195458        6.0106109869
 Cd         0.4041131208       -0.5928072527       -7.0621963737
 Cd         2.1512623067       -1.8411663964       -3.9633222126
 Cd         4.1299954237       -2.9779793076       -0.5482397416
 Cd         6.9198112695       -3.7969115541        2.8856915572
 Cd         1.0695852168       -4.7690510419       -6.7907566029
 Cd         3.6506520581       -5.7624909186       -3.6176476751
 Cd         5.7328494271       -6.5639093207       -0.3327253161
 Cd         2.4549564181        8.1223858542       -1.1566458852
 Cd         4.4054126068        7.2898473230        1.7947994394
 Cd         2.3804016367        5.2451907935       -4.8086173658
 Cd         4.8188803448        4.7185124012       -1.4282745521
 Cd         6.7582515396        3.8402065878        2.0311265199
 Cd         2.6216203041        2.7829689344       -7.7033932139
 Cd         4.8491253033        1.7847647013       -4.5232354049
 Cd         6.7276545762        1.0648632102       -0.9631055228
 Cd         8.8867563677        0.4155630131        2.4348690419
 Cd         4.3617492552       -0.9228390457       -7.7309715094
 Cd         6.7427282327       -1.9756403844       -4.2012276068
 Cd         8.5291716704       -2.6208062404       -0.2527421241
 Se        -9.0550614897        0.2431830516        0.9181660450
 Se        -6.3728152537       -0.6564439527        4.4183726002
 Se        -3.9344011439       -1.3488627398        8.2969875486
 Se        -6.5830939006       -3.7426211448        1.3879564196
 Se        -4.5790806959       -4.2750304938        4.8599000717
 Se        -4.6123003359       -7.7769626518        1.5327449065
 Se        -6.6425668268        3.9855729697        0.4573549018
 Se        -4.0720287763        2.6208122019        3.9144549325
 Se        -1.6331557694        2.0119246341        7.9255587244
 Se        -6.7121946404        0.9832139660       -3.1653084869
 Se        -4.4071765740       -0.2112521767        0.3948430223
 Se        -2.0530337855       -1.1152433415        4.2594982625
 Se         0.4059661702       -1.5661197226        8.0653517933
 Se        -4.4161466884       -3.1302027313       -2.8048316789
 Se        -2.2373016344       -4.0916179402        0.9472369288
 Se         0.1529688370       -4.8126855725        4.4858872122
 Se        -2.4165247511       -7.4210097988       -2.0538841871
 Se        -0.0667402473       -7.8795434145        1.3095758662
 Se        -4.5525712104        7.5949277076       -0.0129079663
 Se        -1.8470683065        6.3633969945        3.5403621370
 Se         0.4037593616        5.8261014212        7.5864336254
 Se        -4.4664168085        4.5540716151       -3.3489624708
 Se        -2.0809643366        3.7152084994        0.3431745133
 Se         0.4983390794        2.6968752520        3.7288688950
 Se         2.7718178600        1.9958987879        7.6265116322
 Se        -4.6135730967        2.0748273288       -6.9049713873
 Se        -2.2789740566        0.8534965159       -3.1261457169
 Se         0.0146604272       -0.1632551488        0.3854514691
 Se         2.3129953257       -1.3186974086        3.9992548273
 Se         4.8632735633       -1.8842686969        7.7357304829
 Se        -2.0700258439       -1.9664658422       -6.4604472420
 Se        -0.0445694373       -3.1600877946       -2.8087794875
 Se         2.2322649699       -4.2315400326        0.7809760362
 Se         4.8362887725       -4.9532771997        4.0967429800
 Se        -0.7551757092       -6.2852913106       -5.8414075238
 Se         1.9250233282       -7.4793461615       -2.6077747091
 Se         4.2593046710       -8.3796400836        0.7362098393
 Se         0.0355545930        7.3687387072       -0.4914105772
 Se         2.3810705063        6.5252052313        3.1428295750
 Se         0.0438349949        4.4288367066       -3.5941338866
 Se         2.5164264799        3.6274195917       -0.0572308346
 Se         4.7728864959        2.4660151080        3.1252373556
 Se         0.0454806723        1.9302199035       -6.9707714019
 Se         2.2759690241        0.7649802260       -3.6570995553
 Se         4.3767880227       -0.2853545304       -0.0180572363
 Se         6.9677730996       -1.1294980760        3.5580667137
 Se         2.2372346075       -2.2684539791       -6.6838768444
 Se         4.3738737897       -3.1974847240       -3.2157385644
 Se         6.4331032956       -4.1117557143        0.4126925988
 Se         4.8520624501        7.5524448386       -0.7460929609
 Se         4.8776011321        4.5490605193       -4.0125460968
 Se         7.0858927477        3.5937231852       -0.6428853519
 Se         4.7821787931        1.5266852813       -7.5555620388
 Se         6.9189604543        0.6111995957       -3.7073596129
 Se         9.1071352229       -0.0625995279       -0.0925405456
  C         6.9966758974       -6.9498266155       -2.8612701735
  H         7.7649322095       -7.1224747738       -3.6684216540
  O         5.8447651374       -6.4675929264       -3.1399830955
  O         7.2899565735       -7.2747937455       -1.6948734892
  C         3.3950717683       -6.2672988581       -6.9491737437
  H         4.3444066225       -6.8936096686       -7.0753272229
  O         3.0189549612       -5.7911651629       -5.7830428290
  O         2.6181181366       -6.1692599316       -7.9242777243
  C         6.3106276857       -2.9078551562       -7.4910405065
  H         7.1299137504       -3.7048862282       -7.4466889051
  O         6.0084748274       -2.3184369331       -6.3483692064
  O         5.9397466266       -2.4746183038       -8.6126785826
  C         8.9774375299       -3.3708834354       -3.4296435269
  H         9.9250180562       -3.8774829974       -3.1826003730
  O         8.5687782575       -3.4152754525       -4.6047236058
  O         8.2720435399       -2.6970177713       -2.5208160157
  C         9.7980644173       -4.6251968886        2.1809940337
  H        10.6408655401       -5.3318691344        2.3887999993
  O         9.7478762446       -4.1810001302        0.9930652115
  O         9.0297771493       -4.5685625663        3.1872453886
  C        -2.8217270518       -8.8884275427        5.3598598018
  H        -2.4154187803       -9.9024293192        5.4343946394
  O        -1.9850720609       -7.9308079507        5.0425534572
  O        -4.0904130588       -8.7277707800        5.4047056085
  C         2.9969190474       -8.6916113602        5.2874283617
  H         2.6967725338       -9.0398269484        6.2934215078
  O         2.0001099469       -8.3583090330        4.5597518442
  O         4.2231771528       -8.6020127175        4.9177840473
  C         2.8792987011       -5.7053277098        8.2324192211
  H         2.3955873073       -6.3773024893        8.9303283437
  O         2.2198486609       -4.8093407465        7.6166996116
  O         4.1496769886       -5.9040605167        8.1541211238
  C        -2.5347106425       -5.9173491316        8.5219939631
  H        -2.0052498086       -6.7390725628        9.0096019785
  O        -1.9211599722       -5.2588995987        7.5985338523
  O        -3.6522237475       -5.5089542582        8.8932104854
  C        -6.8630658186        2.3027076877        7.3891922908
  H        -7.2086193538        3.3071349018        7.3885257928
  O        -5.6219823808        2.1592620441        7.5340908350
  O        -7.6699110030        1.3706255617        7.2000491626
  C        -4.1169999035        6.2827978006        7.2281816510
  H        -5.2418933127        6.2896177269        7.3832000201
  O        -3.5273048623        5.2293506160        6.7741079163
  O        -3.5913793445        7.4674720707        7.3182077689
  C        -6.2567382121        7.1462347691        4.0780962964
  H        -7.2111390447        7.1649409639        4.6689854642
  O        -5.8091702822        6.0485552494        3.6283179405
  O        -5.6136378250        8.2211784251        3.8495554248
  C        -9.2742099826        2.9617511017        4.4604803668
  H        -9.7855372140        3.8838940690        4.7760086716
  O        -8.0591673018        3.0118774224        4.1195318857
  O       -10.0817642318        1.9799553777        4.3926389399
  C        -9.6032727502       -3.5282162780        4.2551628700
  H       -10.5971720209       -3.6001750875        4.7566807035
  O        -9.3836061561       -2.7227832783        3.2943743352
  O        -8.6800536388       -4.3024965919        4.7636472632
  C        -5.4081383983       -6.0792273393       -6.1561875095
  H        -6.0546960796       -6.5859836395       -6.8890942905
  O        -5.3115205060       -6.5043276880       -4.9661225423
  O        -4.7992569444       -5.0929543339       -6.6855376754
  C        -7.4874895131       -7.2705627355       -1.8347959251
  H        -7.8388434959       -7.7173330376       -2.7530342297
  O        -6.3890889056       -6.5551596672       -1.8847650031
  O        -8.0721334610       -7.4412228161       -0.7461579653
  C        -9.2562687261       -3.4270016901       -2.1219728191
  H        -9.5270787848       -4.0663584857       -2.9594189931
  O        -8.1700944997       -2.7555729445       -2.2726382773
  O        -9.8245373827       -3.4942593892       -1.0095266529
  C        -6.7207061950       -1.5101505488       -7.0045939087
  H        -7.7450574417       -1.9674181007       -7.1698505571
  O        -6.3199639200       -1.2783056923       -5.7998047212
  O        -6.0641382873       -1.2638424666       -8.0159791460
  C        -1.9629019881        5.6954888554       -7.4853119335
  H        -1.7770888886        6.7764005651       -7.4923242406
  O        -2.4612081327        5.1872054257       -6.4093027309
  O        -1.7561110540        5.0414167669       -8.5288576695
  C        -1.7168877869        9.0075032545       -3.7839145661
  H        -1.3493405476        9.2660238074       -4.8465614694
  O        -1.7699059887        7.7203562419       -3.5248522162
  O        -1.9636667634        9.8899214575       -2.9412117418
  C         2.5062355876        8.6538826063       -4.1272907079
  H         2.7131102182        9.0638249498       -5.0476060874
  O         2.0944253285        7.4539589577       -4.0305510456
  O         2.6627499358        9.4115062468       -3.1557603033
  C         1.7411525874        5.3672421818       -8.1968623386
  H         1.4358383610        6.4416008070       -8.3632925476
  O         2.2780321414        5.0770080871       -7.0420457474
  O         1.5310879289        4.4838238739       -9.0179364362
  C         9.4768759726        2.6096268204        3.9000014400
  H         9.6131090334        3.4671477718        4.5843902861
  O         8.5286328337        2.7174507208        3.0496902451
  O        10.1889440684        1.5405010827        4.0335853775
  C         6.6326577846        7.0382999555        3.3282051678
  H         7.5082674956        7.1289998248        4.0070788575
  O         6.4947445739        6.1608693376        2.4468317222
  O         5.7959922458        7.9032180108        3.5818384454
  C         4.7447686405        5.8524808064        6.9353937431
  H         5.7085862008        5.7040540943        7.4370666698
  O         4.3288833717        4.9887162868        6.0815996826
  O         4.1466794944        6.9226908271        7.1377520644
  C         7.5603366186        1.7452811931        7.1878777903
  H         8.1158840311        2.6116602203        7.6593692779
  O         6.7462812134        2.0302508307        6.2246354667
  O         7.8438081081        0.5824257763        7.5898220140
     227
 i =        2, time =        2.000, E =        -5.1578772657
 Cd        -8.6169127939        0.4781419051        3.4770691108
 Cd        -5.8714409613       -0.2574732515        7.1133661532
 Cd        -8.4089196180       -2.1555742026        0.3833969323
 Cd        -6.8894515035       -3.2935778121        3.9622020617