     227
 i =        0, time =        0.000, E =        49.2662129264
 Cd        -8.6216924880        0.4810107428        3.4775887729
 Cd        -5.8723589632       -0.2566559957        7.1151373767
 Cd        -8.4076147924       -2.1531404527        0.3867588804
 Cd        -6.8957642261       -3.2896665849        3.9600318291
 Cd        -3.6930098048       -3.6992689615        7.3819491709
 Cd        -6.4429261463       -6.2347087238        0.4622469067
 Cd        -4.3123952394       -6.8285875372        3.9039095072
 Cd        -6.1141073353        3.8626235599        2.9066844924
 Cd        -3.6048790416        2.8797284733        6.5917986711
 Cd        -6.7531255596        1.1841266196       -0.3182182747
 Cd        -4.0437606329        0.0729837467        3.0511954168
 Cd        -1.7753257667       -0.3121054857        6.8316599018
 Cd        -6.3661028473       -1.4630135273       -3.4383357626
 Cd        -4.3602814436       -3.1214810613       -0.1759283953
 Cd        -2.2424276819       -3.6242998489        3.6335413818
 Cd         0.1757294635       -3.9625201566        7.0364714760
 Cd        -4.2692200317       -5.9860442556       -3.0005266361
 Cd        -2.2482225396       -6.7972628816        0.6786391664
 Cd         0.0669003827       -7.3030327295        3.8545421700
 Cd        -4.0792754193        7.4105475565        2.4175118797
 Cd        -1.6116442377        6.4880648240        6.2478272306
 Cd        -4.3308002626        4.8127262164       -0.6762739309
 Cd        -1.8326132452        3.6694977750        3.1598212265
 Cd         0.4939817277        3.1637060931        6.7202662426
 Cd        -4.5980154021        1.9988297698       -4.0880170010
 Cd        -2.1651194586        1.0165564496       -0.4536921834
 Cd         0.1376109507       -0.0659106884        3.1336818174
 Cd         2.6419074521       -0.6636939286        6.8958319365
 Cd        -4.1515129292       -0.5348426091       -6.9620217917
 Cd        -2.2012490343       -1.8491984656       -3.4894107829
 Cd         0.0359311218       -2.8494155653       -0.0264680683
 Cd         2.4407298775       -3.8224684908        3.5289587884
 Cd         4.5907434619       -4.2169180472        6.5928471603
 Cd        -2.6321953796       -4.5685798778       -6.0773989300
 Cd        -0.3638438279       -6.1221236347       -3.0620735359
 Cd         1.9882729153       -6.8506852632       -0.0376753302
 Cd         4.3604701588       -7.5063202656        3.0981086138
 Cd        -2.4313710890        8.2839908015       -1.2010761441
 Cd         0.1210964618        6.7915494583        2.0748938605
 Cd         2.2602783261        6.3879934074        5.9824457591
 Cd        -2.2743307721        5.5403016700       -4.1096429978
 Cd         0.1552258413        4.6164378819       -0.9814446932
 Cd         2.6173372932        3.7540356816        2.4616712460
 Cd         4.3934694910        2.5024270436        5.6448470259
 Cd        -2.3839877703        3.0961459608       -7.5397423510
 Cd        -0.1308699873        1.7716472388       -4.3458913396
 Cd         2.1522040622        0.8595996928       -0.9600505658
 Cd         4.3027041934       -0.4425155449        2.5248589789
 Cd         6.4943132815       -0.6514444341        6.0110723312
 Cd         0.4032906214       -0.5920449882       -7.0625722312
 Cd         2.1504065746       -1.8410095193       -3.9631978812
 Cd         4.1282053355       -2.9764966895       -0.5499119195
 Cd         6.9189885741       -3.8001688729        2.8840486736
 Cd         1.0693858855       -4.7693596381       -6.7909688629
 Cd         3.6529341800       -5.7620820022       -3.6150795142
 Cd         5.7341856059       -6.5625995016       -0.3323817960
 Cd         2.4532379782        8.1225833618       -1.1556872380
 Cd         4.4025673150        7.2904811152        1.7928276254
 Cd         2.3800547108        5.2453457502       -4.8107637235
 Cd         4.8184663347        4.7191125514       -1.4277792117
 Cd         6.7589411702        3.8390778732        2.0295448973
 Cd         2.6210634084        2.7844913241       -7.7035228004
 Cd         4.8495943395        1.7843685348       -4.5225056138
 Cd         6.7261500983        1.0662237140       -0.9642295531
 Cd         8.8881450478        0.4141445330        2.4369093904
 Cd         4.3615782352       -0.9213178924       -7.7328888960
 Cd         6.7438649008       -1.9767569930       -4.2031112584
 Cd         8.5272445020       -2.6218905711       -0.2551455218
 Se        -9.0557725106        0.2424574140        0.9180313808
 Se        -6.3745872764       -0.6570220647        4.4225742627
 Se        -3.9358548519       -1.3506397678        8.2925868769
 Se        -6.5830028390       -3.7408669090        1.3890860046
 Se        -4.5802302415       -4.2716541219        4.8585926421
 Se        -4.6110671623       -7.7792240778        1.5343213278
 Se        -6.6407812351        3.9866809498        0.4586064126
 Se        -4.0705866514        2.6241591830        3.9150270775
 Se        -1.6315747320        2.0143859544        7.9219454430
 Se        -6.7106235468        0.9827493806       -3.1628202938
 Se        -4.4077684895       -0.2106461950        0.3970531668
 Se        -2.0534879979       -1.1190641497        4.2604482105
 Se         0.4069246601       -1.5676855049        8.0617057342
 Se        -4.4126107232       -3.1307459794       -2.8028288282
 Se        -2.2371864822       -4.0884616040        0.9473336128
 Se         0.1541797359       -4.8148952714        4.4843326207
 Se        -2.4147106009       -7.4199706225       -2.0529393442
 Se        -0.0662571417       -7.8800811154        1.3078284855
 Se        -4.5519687636        7.5920037884       -0.0122560791
 Se        -1.8482840651        6.3647212661        3.5390459072
 Se         0.4006735392        5.8241498358        7.5878867146
 Se        -4.4655945585        4.5529209660       -3.3484418515
 Se        -2.0798083538        3.7153034916        0.3451575142
 Se         0.4973892782        2.6967113851        3.7286137790
 Se         2.7724753484        1.9958260876        7.6298945277
 Se        -4.6126224962        2.0736182894       -6.9031574659
 Se        -2.2770211290        0.8531533747       -3.1284312065
 Se         0.0138865169       -0.1636477002        0.3858468104
 Se         2.3115473387       -1.3198431962        4.0017354986
 Se         4.8624545925       -1.8855864388        7.7371297607
 Se        -2.0700877949       -1.9675257511       -6.4603372509
 Se        -0.0447057629       -3.1582708631       -2.8090856920
 Se         2.2343306950       -4.2299664240        0.7817840723
 Se         4.8342987615       -4.9516929708        4.0974643468
 Se        -0.7556003326       -6.2829108386       -5.8406699955
 Se         1.9243057511       -7.4784768035       -2.6074198353
 Se         4.2543989663       -8.3809591814        0.7363809319
 Se         0.0386925703        7.3677075300       -0.4939635450
 Se         2.3791568525        6.5289221229        3.1400383851
 Se         0.0465974103        4.4270318221       -3.5936563407
 Se         2.5167269427        3.6273521599       -0.0581806204
 Se         4.7705604635        2.4670139639        3.1233546104
 Se         0.0435933033        1.9323944164       -6.9695738842
 Se         2.2733127965        0.7623703678       -3.6584263160
 Se         4.3816175435       -0.2841549253       -0.0177063702
 Se         6.9670500347       -1.1290204494        3.5565582379
 Se         2.2410869402       -2.2702007814       -6.6798205275
 Se         4.3723294721       -3.1971869108       -3.2130677403
 Se         6.4331938555       -4.1098532443        0.4136420186
 Se         4.8503033307        7.5509093293       -0.7463548497
 Se         4.8776288797        4.5477652435       -4.0091414448
 Se         7.0830986217        3.5950723552       -0.6434567968
 Se         4.7810064642        1.5273410534       -7.5566303287
 Se         6.9188050062        0.6130038217       -3.7081238627
 Se         9.1066871843       -0.0609359671       -0.0919647969
  C         6.9955771113       -6.9586634775       -2.8583426301
  H         7.7780160969       -7.1271873265       -3.6573399650
  O         5.8389952916       -6.4652991204       -3.1445809228
  O         7.2920676004       -7.2683568805       -1.6893132711
  C         3.3939431960       -6.2668607509       -6.9513074648
  H         4.3245440932       -6.8689211647       -7.0591687882
  O         3.0202466073       -5.7860511295       -5.7843136273
  O         2.6220129789       -6.1746538788       -7.9242101403
  C         6.3116555909       -2.9071154185       -7.4921130606
  H         7.0978863851       -3.7212906458       -7.4285512081
  O         6.0096715894       -2.3219711192       -6.3505932827
  O         5.9403243477       -2.4750431756       -8.6116316973
  C         8.9837561036       -3.3697375837       -3.4349055328
  H         9.9249943929       -3.8864043165       -3.1840078659
  O         8.5659407989       -3.4209184445       -4.6048832464
  O         8.2714489672       -2.6971151254       -2.5207012617
  C         9.7902109758       -4.6282247391        2.1768529346
  H        10.6284324694       -5.3337138149        2.3552924638
  O         9.7484501532       -4.1824896055        0.9942458601
  O         9.0219926648       -4.5705851174        3.1873629795
  C        -2.8252708508       -8.8894178348        5.3653894160
  H        -2.3915771747       -9.8892286280        5.4446685031
  O        -1.9808601030       -7.9304545651        5.0436955975
  O        -4.0908415257       -8.7280019527        5.4030844137
  C         3.0047406823       -8.6887063298        5.2919739424
  H         2.6853413808       -9.0312323512        6.2714246943
  O         1.9985977812       -8.3553887881        4.5599054594
  O         4.2197147413       -8.6069092298        4.9235206312
  C         2.8732291572       -5.7090624943        8.2322507888
  H         2.4095730423       -6.3582442170        8.9295273658
  O         2.2236878889       -4.8031284854        7.6183804854
  O         4.1525405945       -5.8988692439        8.1468427445
  C        -2.5324052264       -5.9090323801        8.5168983878
  H        -2.0058427467       -6.7599986745        9.0204193621
  O        -1.9189018681       -5.2527647032        7.5983339134
  O        -3.6521974131       -5.4981014961        8.8936623702
  C        -6.8661340661        2.3082426882        7.3884767521
  H        -7.2433530482        3.2983326111        7.3747512577
  O        -5.6189307919        2.1553364867        7.5292857639
  O        -7.6694328727        1.3672322100        7.2032576312
  C        -4.1128935570        6.2776012356        7.2258109093
  H        -5.2184092536        6.2949225170        7.4003980339
  O        -3.5215502414        5.2331222329        6.7794929280
  O        -3.5956064510        7.4679880815        7.3184340370
  C        -6.2584500423        7.1467273309        4.0778865765
  H        -7.2018864753        7.1620259062        4.6862261037
  O        -5.8042352338        6.0508881806        3.6277903665
  O        -5.6141473350        8.2227071687        3.8530055117
  C        -9.2670155991        2.9624473135        4.4549609073
  H        -9.7760873251        3.8307467380        4.7753730710
  O        -8.0580447847        3.0137717908        4.1153681461
  O       -10.0869615960        1.9755230626        4.3964141791
  C        -9.5997958208       -3.5202239981        4.2555074891
  H       -10.6284324694       -3.6062117458        4.7363993397
  O        -9.3836198173       -2.7271085544        3.2939504316
  O        -8.6749593009       -4.3055307223        4.7674147240
  C        -5.4063829718       -6.0836320759       -6.1576393485
  H        -6.0390997038       -6.5934387315       -6.8768176703
  O        -5.3157147411       -6.5042627408       -4.9638375967
  O        -4.7997118332       -5.0931497246       -6.6842330004
  C        -7.4812021438       -7.2683192216       -1.8337008205
  H        -7.8430239833       -7.7214409635       -2.7403108931
  O        -6.3847231004       -6.5596142310       -1.8855223803
  O        -8.0870004405       -7.4369608581       -0.7449951352
  C        -9.2637717352       -3.4248031045       -2.1287629167
  H        -9.5435102925       -4.0726156799       -2.9624854104
  O        -8.1685743898       -2.7562864935       -2.2769679175
  O        -9.8293124780       -3.4993302663       -1.0042472880
  C        -6.7198117275       -1.5155721631       -7.0057360974
  H        -7.7266400310       -1.9701098143       -7.1795729881
  O        -6.3208037730       -1.2812141421       -5.7891801227
  O        -6.0546670581       -1.2647410752       -8.0219575549
  C        -1.9610306020        5.6962737072       -7.4797868569
  H        -1.8068881661        6.7616764611       -7.4798700689
  O        -2.4613788677        5.1953402046       -6.4147373301
  O        -1.7592038190        5.0404242691       -8.5376948407
  C        -1.7153677193        9.0065729983       -3.7807068554
  H        -1.3518565997        9.2891789052       -4.8285272378
  O        -1.7735635219        7.7204009534       -3.5311974415
  O        -1.9589811591        9.8892286280       -2.9296575010
  C         2.5176986766        8.6527359013       -4.1276241396
  H         2.7356319561        9.0838176512       -5.0545617483
  O         2.0941304229        7.4607563111       -4.0382054964
  O         2.6632020791        9.4136986823       -3.1567247192
  C         1.7405814703        5.3615037054       -8.2026998584
  H         1.4592813282        6.4433815072       -8.3446733349
  O         2.2712544771        5.0744229803       -7.0359036782
  O         1.5374971892        4.4786315137       -9.0204193621
  C         9.4791869119        2.6134878200        3.9079418032
  H         9.6264681644        3.4611325178        4.5867541287
  O         8.5294682966        2.7206869475        3.0468687327
  O        10.1884170796        1.5361363159        4.0354546634
  C         6.6320899766        7.0427804887        3.3240585285
  H         7.5183451153        7.1103565644        4.0025867163
  O         6.4921259472        6.1579139584        2.4473334656
  O         5.8014508194        7.8970951585        3.5804466065
  C         4.7468288793        5.8510846562        6.9391041765
  H         5.6837062732        5.7110173508        7.4566454645
  O         4.3315486404        4.9881730889        6.0840680113
  O         4.1390624477        6.9214380767        7.1338855679
  C         7.5642974957        1.7429307679        7.1823006621
  H         8.1116275708        2.6102062210        7.6466333920
  O         6.7423080014        2.0330978891        6.2208765696
  O         7.8434776238        0.5800715711        7.5931108165
     227
 i =        1, time =        1.000, E =        48.5766634833
 Cd        -8.6191669508        0.4792731882        3.4777492547
 Cd        -5.8728444825       -0.2568889363        7.1138539740
 Cd        -8.4082884572       -2.1548922095        0.3847115114
 Cd        -6.8922173687       -3.2911198625        3.9612040408
 Cd        -3.6902920662       -3.7011145380        7.3817156352
 Cd        -6.4423461608       -6.2355173430        0.4644545792
 Cd        -4.3121786974       -6.8292264749        3.9062253535
 Cd        -6.1168310002        3.8608301977        2.9068008651
 Cd        -3.6074149587        2.8815453696        6.5896407120
 Cd        -6.7533504760        1.1874070374       -0.3192804344
 Cd        -4.0448710078        0.0755024170        3.0498911350
 Cd        -1.7742104629       -0.3134269738        6.8331448781
 Cd        -6.3663589975       -1.4642577663       -3.4401439735
 Cd        -4.3621515648       -3.1213057251       -0.1743174149
 Cd        -2.2424691197       -3.6225443759        3.6334729930
 Cd         0.1778040025       -3.9619758515        7.0369281579
 Cd        -4.2700159227       -5.9870223290       -2.9988808086
 Cd        -2.2498907957       -6.7959773946        0.6787428779
 Cd         0.0673273883       -7.3038120999        3.8546148519
 Cd        -4.0792684550        7.4117355853        2.4195470034
 Cd        -1.6116242672        6.4888830832        6.2500892021
 Cd        -4.3324219828        4.8131399216       -0.6767974037
 Cd        -1.8303627479        3.6700418301        3.1584899452
 Cd         0.4898434799        3.1635920040        6.7198558926
 Cd        -4.5983401431        2.0002373692       -4.0898686603
 Cd        -2.1632392573        1.0187405029       -0.4516473561
 Cd         0.1382986628       -0.0676403076        3.1342267789
 Cd         2.6424090120       -0.6633311274        6.8951713689
 Cd        -4.1541302189       -0.5349382703       -6.9610814923
 Cd        -2.2033365556       -1.8485962505       -3.4905642366
 Cd         0.0357007462       -2.8475316574       -0.0251498946
 Cd         2.4399856669       -3.8226160103        3.5301345550
 Cd         4.5938762804       -4.2153760672        6.5947321615
 Cd        -2.6323431125       -4.5693880907       -6.0783174981
 Cd        -0.3606787946       -6.1201473897       -3.0632787978
 Cd         1.9868541424       -6.8520449974       -0.0371864441
 Cd         4.3580896937       -7.5032947665        3.0967932185
 Cd        -2.4311556065        8.2872837960       -1.2008018441
 Cd         0.1211309361        6.7915724660        2.0734447789
 Cd         2.2583663230        6.3883098829        5.9809502641
 Cd        -2.2733914146        5.5411542373       -4.1124617839
 Cd         0.1544048595        4.6149320954       -0.9817118828
 Cd         2.6161261807        3.7542258023        2.4622949557
 Cd         4.3941051711        2.5016069132        5.6453960362
 Cd        -2.3855578843        3.0931762175       -7.5403350232
 Cd        -0.1311774247        1.7710006139       -4.3471640436
 Cd         2.1528697882        0.8605126187       -0.9631524218
 Cd         4.3040919798       -0.4400860766        2.5258987297
 Cd         6.4919523525       -0.6513388723        6.0113842484
 Cd         0.4031560185       -0.5929862572       -7.0626301848
 Cd         2.1509310101       -1.8416208975       -3.9632511013
 Cd         4.1301197502       -2.9777036757       -0.5482882898
 Cd         6.9197344799       -3.7964762333        2.8867409248
 Cd         1.0697362499       -4.7680381200       -6.7913146354
 Cd         3.6507962417       -5.7623238213       -3.6171763803
 Cd         5.7320772944       -6.5631577400       -0.3323691315
 Cd         2.4538967215        8.1229447111       -1.1568142151
 Cd         4.4057924823        7.2902120696        1.7945848760
 Cd         2.3803797186        5.2450456981       -4.8079230465
 Cd         4.8182106971        4.7188836646       -1.4274036460
 Cd         6.7583690934        3.8405685681        2.0310161825
 Cd         2.6204911253        2.7833365338       -7.7034916986
 Cd         4.8476996498        1.7853833674       -4.5239189974
 Cd         6.7272269997        1.0638671528       -0.9630723030
 Cd         8.8868508692        0.4154325215        2.4353297653
 Cd         4.3613716063       -0.9242592163       -7.7313065323
 Cd         6.7423955693       -1.9757657617       -4.2009494608
 Cd         8.5294408383       -2.6208071146       -0.2524040670
 Se        -9.0570240435        0.2452201353        0.9171245656
 Se        -6.3731487743       -0.6561447671        4.4187960989
 Se        -3.9335319999       -1.3483109965        8.3001126068
 Se        -6.5828828165       -3.7432145177        1.3871647667
 Se        -4.5791632090       -4.2762537017        4.8610096166
 Se        -4.6127636677       -7.7795686120        1.5321028932
 Se        -6.6446359685        3.9856888377        0.4550304002
 Se        -4.0724906814        2.6205598171        3.9155028801
 Se        -1.6320451997        2.0131232979        7.9285623569
 Se        -6.7156920357        0.9853659063       -3.1643044144
 Se        -4.4079105977       -0.2116826468        0.3944824856
 Se        -2.0523868452       -1.1145714629        4.2602648616
 Se         0.4057247119       -1.5658364870        8.0672840340
 Se        -4.4166459626       -3.1316281448       -2.8059293642
 Se        -2.2363664142       -4.0918244557        0.9474344182
 Se         0.1523789748       -4.8122326234        4.4864294983
 Se        -2.4162498875       -7.4237400292       -2.0534464327
 Se        -0.0653279180       -7.8823267958        1.3097485200
 Se        -4.5555783301        7.5955550222       -0.0149685622
 Se        -1.8491038269        6.3640751479        3.5422609661
 Se         0.4041297824        5.8257182033        7.5902402006
 Se        -4.4690451966        4.5548269636       -3.3490545738
 Se        -2.0808596827        3.7149440539        0.3431846049
 Se         0.4991048095        2.6960153771        3.7301402681
 Se         2.7719747760        1.9961025696        7.6286463492
 Se        -4.6162639677        2.0752755445       -6.9054356819
 Se        -2.2795634692        0.8533652537       -3.1264470874
 Se         0.0153549978       -0.1634613441        0.3858054700
 Se         2.3131432989       -1.3172010920        4.0009095868
 Se         4.8640849022       -1.8840356673        7.7379920273
 Se        -2.0687879848       -1.9667976358       -6.4609536242
 Se        -0.0435330948       -3.1611752657       -2.8087254010
 Se         2.2318675571       -4.2321152727        0.7812485782
 Se         4.8366579077       -4.9545166703        4.0968789596
 Se        -0.7553880263       -6.2885254998       -5.8415297785
 Se         1.9251032313       -7.4814937430       -2.6087745548
 Se         4.2589016785       -8.3827759394        0.7348917623
 Se         0.0349573754        7.3695724448       -0.4919498550
 Se         2.3820741999        6.5251661817        3.1452067426
 Se         0.0445989437        4.4288913465       -3.5950215479
 Se         2.5167265748        3.6272725391       -0.0598294418
 Se         4.7741231342        2.4648684308        3.1245863867
 Se         0.0452035607        1.9319221325       -6.9725702232
 Se         2.2769553844        0.7659626200       -3.6573606746
 Se         4.3777270178       -0.2852477831       -0.0197603022
 Se         6.9681859232       -1.1298971841        3.5569040156
 Se         2.2388446193       -2.2703027404       -6.6846352109
 Se         4.3748347822       -3.1974319598       -3.2162774916
 Se         6.4327514048       -4.1122313123        0.4108205760
 Se         4.8556026236        7.5526766883       -0.7473277341
 Se         4.8785157035        4.5496162786       -4.0146625090
 Se         7.0879871225        3.5955056938       -0.6428985776
 Se         4.7854904994        1.5284544201       -7.5557121680
 Se         6.9217311850        0.6110937527       -3.7073480645
 Se         9.1089885739       -0.0618959201       -0.0940030356
  C         6.9966758974       -6.9498266155       -2.8612701735
  H         7.7649322095       -7.1224747738       -3.6684216540
  O         5.8503859222       -6.4702982927       -3.1394762562
  O         7.2998049531       -7.2794005622       -1.7035833758
  C         3.3950717683       -6.2672988581       -6.9491737437
  H         4.3444066225       -6.8936096686       -7.0753272229
  O         3.0201126427       -5.7933603430       -5.7904133271
  O         2.6211707606       -6.1719326687       -7.9265153491
  C         6.3106276857       -2.9078551562       -7.4910405065
  H         7.1299137504       -3.7048862282       -7.4466889051
  O         6.0083078412       -2.3203757877       -6.3549262122
  O         5.9426898005       -2.4774573828       -8.6143174807
  C         8.9774375299       -3.3708834354       -3.4296435269
  H         9.9250180562       -3.8774829974       -3.1826003730
  O         8.5725616090       -3.4182665586       -4.6055696870
  O         8.2745441557       -2.6994291330       -2.5262183506
  C         9.7980644173       -4.6251968886        2.1809940337
  H        10.6408655401       -5.3318691344        2.3887999993
  O         9.7535748615       -4.1846807322        0.9963942280
  O         9.0382622437       -4.5717314007        3.1887250736
  C        -2.8217270518       -8.8884275427        5.3598598018
  H        -2.4154187803       -9.9024293192        5.4343946394
  O        -1.9874394256       -7.9321982653        5.0443989704
  O        -4.0900745463       -8.7304062789        5.4069625436
  C         2.9969190474       -8.6916113602        5.2874283617
  H         2.6967725338       -9.0398269484        6.2934215078
  O         2.0054886975       -8.3616337146        4.5622557772
  O         4.2219002743       -8.6117880891        4.9333333839
  C         2.8792987011       -5.7053277098        8.2324192211
  H         2.3955873073       -6.3773024893        8.9303283437
  O         2.2257917522       -4.8130920615        7.6194493713
  O         4.1485606623       -5.9083399567        8.1580117868
  C        -2.5347106425       -5.9173491316        8.5219939631
  H        -2.0052498086       -6.7390725628        9.0096019785
  O        -1.9194915567       -5.2631703125        7.6001397808
  O        -3.6521029805       -5.5129885167        8.8965663989
  C        -6.8630658186        2.3027076877        7.3891922908
  H        -7.2086193538        3.3071349018        7.3885257928
  O        -5.6269161199        2.1605874057        7.5370284007
  O        -7.6727324937        1.3733818086        7.2008548052
  C        -4.1169999035        6.2827978006        7.2281816510
  H        -5.2418933127        6.2896177269        7.3832000201
  O        -3.5319475220        5.2316733567        6.7762215775
  O        -3.5937392186        7.4686315963        7.3194912431
  C        -6.2567382121        7.1462347691        4.0780962964
  H        -7.2111390447        7.1649409639        4.6689854642
  O        -5.8103310024        6.0534734846        3.6316349645
  O        -5.6198471018        8.2244599621        3.8554249611
  C        -9.2742099826        2.9617511017        4.4604803668
  H        -9.7855372140        3.8838940690        4.7760086716
  O        -8.0618279214        3.0119039909        4.1215294540
  O       -10.0865465783        1.9848723789        4.3958036377
  C        -9.6032727502       -3.5282162780        4.2551628700
  H       -10.5971720209       -3.6001750875        4.7566807035
  O        -9.3863417346       -2.7228782542        3.2951977863
  O        -8.6901150297       -4.3081341617        4.7682642247
  C        -5.4081383983       -6.0792273393       -6.1561875095
  H        -6.0546960796       -6.5859836395       -6.8890942905
  O        -5.3150719993       -6.5061359789       -4.9726401404
  O        -4.8053849070       -5.0945145337       -6.6872914928
  C        -7.4874895131       -7.2705627355       -1.8347959251
  H        -7.8388434959       -7.7173330376       -2.7530342297
  O        -6.3917809240       -6.5565454421       -1.8881825784
  O        -8.0754536128       -7.4435684164       -0.7486001632
  C        -9.2562687261       -3.4270016901       -2.1219728191
  H        -9.5270787848       -4.0663584857       -2.9594189931
  O        -8.1722682062       -2.7569418093       -2.2723352324
  O        -9.8269868229       -3.4964586917       -1.0119118128
  C        -6.7207061950       -1.5101505488       -7.0045939087
  H        -7.7450574417       -1.9674181007       -7.1698505571
  O        -6.3212774689       -1.2797185143       -5.8054193669
  O        -6.0700913461       -1.2664972701       -8.0193255723
  C        -1.9629019881        5.6954888554       -7.4853119335
  H        -1.7770888886        6.7764005651       -7.4923242406
  O        -2.4614706721        5.1909021990       -6.4135424955
  O        -1.7540766700        5.0484911630       -8.5324849729
  C        -1.7168877869        9.0075032545       -3.7839145661
  H        -1.3493405476        9.2660238074       -4.8465614694
  O        -1.7688082664        7.7266340775       -3.5267568239
  O        -1.9630370970        9.8925627873       -2.9440489866
  C         2.5062355876        8.6538826063       -4.1272907079
  H         2.7131102182        9.0638249498       -5.0476060874
  O         2.0941751611        7.4592045192       -4.0295635067
  O         2.6627685354        9.4140731893       -3.1596434126
  C         1.7411525874        5.3672421818       -8.1968623386
  H         1.4358383610        6.4416008070       -8.3632925476
  O         2.2771836890        5.0801793237       -7.0512172575
  O         1.5298882996        4.4873482564       -9.0206898852
  C         9.4768759726        2.6096268204        3.9000014400
  H         9.6131090334        3.4671477718        4.5843902861
  O         8.5332173441        2.7183157167        3.0533634124
  O        10.1919169093        1.5430733939        4.0371574473
  C         6.6326577846        7.0382999555        3.3282051678
  H         7.5082674956        7.1289998248        4.0070788575
  O         6.4968883931        6.1641491841        2.4488491744
  O         5.7997539732        7.9048189065        3.5858491305
  C         4.7447686405        5.8524808064        6.9353937431
  H         5.7085862008        5.7040540943        7.4370666698
  O         4.3312746217        4.9900742162        6.0823072764
  O         4.1538139906        6.9247179305        7.1419098043
  C         7.5603366186        1.7452811931        7.1878777903
  H         8.1158840311        2.6116602203        7.6593692779
  O         6.7494930567        2.0305558508        6.2260743923
  O         7.8461067995        0.5845074254        7.5921327969
     227
 i =        2, time =        2.000, E =        46.7415260434
 Cd        -8.6163995914        0.4769169224        3.4791057128
 Cd        -5.8759274223       -0.2564426046        7.1115202203
 Cd        -8.4091718286       -2.1581147645        0.3816229003
 Cd        -6.8879250215       -3.2913415829        3.9626795358