     227
 i =        0, time =        0.000, E =        -8.7692371623
 Cd        -8.6216924880        0.4810107428        3.4775887729
 Cd        -5.8723589632       -0.2566559957        7.1151373767
 Cd        -8.4076147924       -2.1531404527        0.3867588804
 Cd        -6.8957642261       -3.2896665849        3.9600318291
 Cd        -3.6930098048       -3.6992689615        7.3819491709
 Cd        -6.4429261463       -6.2347087238        0.4622469067
 Cd        -4.3123952394       -6.8285875372        3.9039095072
 Cd        -6.1141073353        3.8626235599        2.9066844924
 Cd        -3.6048790416        2.8797284733        6.5917986711
 Cd        -6.7531255596        1.1841266196       -0.3182182747
 Cd        -4.0437606329        0.0729837467        3.0511954168
 Cd        -1.7753257667       -0.3121054857        6.8316599018
 Cd        -6.3661028473       -1.4630135273       -3.4383357626
 Cd        -4.3602814436       -3.1214810613       -0.1759283953
 Cd        -2.2424276819       -3.6242998489        3.6335413818
 Cd         0.1757294635       -3.9625201566        7.0364714760
 Cd        -4.2692200317       -5.9860442556       -3.0005266361
 Cd        -2.2482225396       -6.7972628816        0.6786391664
 Cd         0.0669003827       -7.3030327295        3.8545421700
 Cd        -4.0792754193        7.4105475565        2.4175118797
 Cd        -1.6116442377        6.4880648240        6.2478272306
 Cd        -4.3308002626        4.8127262164       -0.6762739309
 Cd        -1.8326132452        3.6694977750        3.1598212265
 Cd         0.4939817277        3.1637060931        6.7202662426
 Cd        -4.5980154021        1.9988297698       -4.0880170010
 Cd        -2.1651194586        1.0165564496       -0.4536921834
 Cd         0.1376109507       -0.0659106884        3.1336818174
 Cd         2.6419074521       -0.6636939286        6.8958319365
 Cd        -4.1515129292       -0.5348426091       -6.9620217917
 Cd        -2.2012490343       -1.8491984656       -3.4894107829
 Cd         0.0359311218       -2.8494155653       -0.0264680683
 Cd         2.4407298775       -3.8224684908        3.5289587884
 Cd         4.5907434619       -4.2169180472        6.5928471603
 Cd        -2.6321953796       -4.5685798778       -6.0773989300
 Cd        -0.3638438279       -6.1221236347       -3.0620735359
 Cd         1.9882729153       -6.8506852632       -0.0376753302
 Cd         4.3604701588       -7.5063202656        3.0981086138
 Cd        -2.4313710890        8.2839908015       -1.2010761441
 Cd         0.1210964618        6.7915494583        2.0748938605
 Cd         2.2602783261        6.3879934074        5.9824457591
 Cd        -2.2743307721        5.5403016700       -4.1096429978
 Cd         0.1552258413        4.6164378819       -0.9814446932
 Cd         2.6173372932        3.7540356816        2.4616712460
 Cd         4.3934694910        2.5024270436        5.6448470259
 Cd        -2.3839877703        3.0961459608       -7.5397423510
 Cd        -0.1308699873        1.7716472388       -4.3458913396
 Cd         2.1522040622        0.8595996928       -0.9600505658
 Cd         4.3027041934       -0.4425155449        2.5248589789
 Cd         6.4943132815       -0.6514444341        6.0110723312
 Cd         0.4032906214       -0.5920449882       -7.0625722312
 Cd         2.1504065746       -1.8410095193       -3.9631978812
 Cd         4.1282053355       -2.9764966895       -0.5499119195
 Cd         6.9189885741       -3.8001688729        2.8840486736
 Cd         1.0693858855       -4.7693596381       -6.7909688629
 Cd         3.6529341800       -5.7620820022       -3.6150795142
 Cd         5.7341856059       -6.5625995016       -0.3323817960
 Cd         2.4532379782        8.1225833618       -1.1556872380
 Cd         4.4025673150        7.2904811152        1.7928276254
 Cd         2.3800547108        5.2453457502       -4.8107637235
 Cd         4.8184663347        4.7191125514       -1.4277792117
 Cd         6.7589411702        3.8390778732        2.0295448973
 Cd         2.6210634084        2.7844913241       -7.7035228004
 Cd         4.8495943395        1.7843685348       -4.5225056138
 Cd         6.7261500983        1.0662237140       -0.9642295531
 Cd         8.8881450478        0.4141445330        2.4369093904
 Cd         4.3615782352       -0.9213178924       -7.7328888960
 Cd         6.7438649008       -1.9767569930       -4.2031112584
 Cd         8.5272445020       -2.6218905711       -0.2551455218
 Se        -9.0557725106        0.2424574140        0.9180313808
 Se        -6.3745872764       -0.6570220647        4.4225742627
 Se        -3.9358548519       -1.3506397678        8.2925868769
 Se        -6.5830028390       -3.7408669090        1.3890860046
 Se        -4.5802302415       -4.2716541219        4.8585926421
 Se        -4.6110671623       -7.7792240778        1.5343213278
 Se        -6.6407812351        3.9866809498        0.4586064126
 Se        -4.0705866514        2.6241591830        3.9150270775
 Se        -1.6315747320        2.0143859544        7.9219454430
 Se        -6.7106235468        0.9827493806       -3.1628202938
 Se        -4.4077684895       -0.2106461950        0.3970531668
 Se        -2.0534879979       -1.1190641497        4.2604482105
 Se         0.4069246601       -1.5676855049        8.0617057342
 Se        -4.4126107232       -3.1307459794       -2.8028288282
 Se        -2.2371864822       -4.0884616040        0.9473336128
 Se         0.1541797359       -4.8148952714        4.4843326207
 Se        -2.4147106009       -7.4199706225       -2.0529393442
 Se        -0.0662571417       -7.8800811154        1.3078284855
 Se        -4.5519687636        7.5920037884       -0.0122560791
 Se        -1.8482840651        6.3647212661        3.5390459072
 Se         0.4006735392        5.8241498358        7.5878867146
 Se        -4.4655945585        4.5529209660       -3.3484418515
 Se        -2.0798083538        3.7153034916        0.3451575142
 Se         0.4973892782        2.6967113851        3.7286137790
 Se         2.7724753484        1.9958260876        7.6298945277
 Se        -4.6126224962        2.0736182894       -6.9031574659
 Se        -2.2770211290        0.8531533747       -3.1284312065
 Se         0.0138865169       -0.1636477002        0.3858468104
 Se         2.3115473387       -1.3198431962        4.0017354986
 Se         4.8624545925       -1.8855864388        7.7371297607
 Se        -2.0700877949       -1.9675257511       -6.4603372509
 Se        -0.0447057629       -3.1582708631       -2.8090856920
 Se         2.2343306950       -4.2299664240        0.7817840723
 Se         4.8342987615       -4.9516929708        4.0974643468
 Se        -0.7556003326       -6.2829108386       -5.8406699955
 Se         1.9243057511       -7.4784768035       -2.6074198353
 Se         4.2543989663       -8.3809591814        0.7363809319
 Se         0.0386925703        7.3677075300       -0.4939635450
 Se         2.3791568525        6.5289221229        3.1400383851
 Se         0.0465974103        4.4270318221       -3.5936563407
 Se         2.5167269427        3.6273521599       -0.0581806204
 Se         4.7705604635        2.4670139639        3.1233546104
 Se         0.0435933033        1.9323944164       -6.9695738842
 Se         2.2733127965        0.7623703678       -3.6584263160
 Se         4.3816175435       -0.2841549253       -0.0177063702
 Se         6.9670500347       -1.1290204494        3.5565582379
 Se         2.2410869402       -2.2702007814       -6.6798205275
 Se         4.3723294721       -3.1971869108       -3.2130677403
 Se         6.4331938555       -4.1098532443        0.4136420186
 Se         4.8503033307        7.5509093293       -0.7463548497
 Se         4.8776288797        4.5477652435       -4.0091414448
 Se         7.0830986217        3.5950723552       -0.6434567968
 Se         4.7810064642        1.5273410534       -7.5566303287
 Se         6.9188050062        0.6130038217       -3.7081238627
 Se         9.1066871843       -0.0609359671       -0.0919647969
  C         6.9955771113       -6.9586634775       -2.8583426301
  H         7.7780160969       -7.1271873265       -3.6573399650
  O         5.8389952916       -6.4652991204       -3.1445809228
  O         7.2920676004       -7.2683568805       -1.6893132711
  C         3.3939431960       -6.2668607509       -6.9513074648
  H         4.3245440932       -6.8689211647       -7.0591687882
  O         3.0202466073       -5.7860511295       -5.7843136273
  O         2.6220129789       -6.1746538788       -7.9242101403
  C         6.3116555909       -2.9071154185       -7.4921130606
  H         7.0978863851       -3.7212906458       -7.4285512081
  O         6.0096715894       -2.3219711192       -6.3505932827
  O         5.9403243477       -2.4750431756       -8.6116316973
  C         8.9837561036       -3.3697375837       -3.4349055328
  H         9.9249943929       -3.8864043165       -3.1840078659
  O         8.5659407989       -3.4209184445       -4.6048832464
  O         8.2714489672       -2.6971151254       -2.5207012617
  C         9.7902109758       -4.6282247391        2.1768529346
  H        10.6284324694       -5.3337138149        2.3552924638
  O         9.7484501532       -4.1824896055        0.9942458601
  O         9.0219926648       -4.5705851174        3.1873629795
  C        -2.8252708508       -8.8894178348        5.3653894160
  H        -2.3915771747       -9.8892286280        5.4446685031
  O        -1.9808601030       -7.9304545651        5.0436955975
  O        -4.0908415257       -8.7280019527        5.4030844137
  C         3.0047406823       -8.6887063298        5.2919739424
  H         2.6853413808       -9.0312323512        6.2714246943
  O         1.9985977812       -8.3553887881        4.5599054594
  O         4.2197147413       -8.6069092298        4.9235206312
  C         2.8732291572       -5.7090624943        8.2322507888
  H         2.4095730423       -6.3582442170        8.9295273658
  O         2.2236878889       -4.8031284854        7.6183804854
  O         4.1525405945       -5.8988692439        8.1468427445
  C        -2.5324052264       -5.9090323801        8.5168983878
  H        -2.0058427467       -6.7599986745        9.0204193621
  O        -1.9189018681       -5.2527647032        7.5983339134
  O        -3.6521974131       -5.4981014961        8.8936623702
  C        -6.8661340661        2.3082426882        7.3884767521
  H        -7.2433530482        3.2983326111        7.3747512577
  O        -5.6189307919        2.1553364867        7.5292857639
  O        -7.6694328727        1.3672322100        7.2032576312
  C        -4.1128935570        6.2776012356        7.2258109093
  H        -5.2184092536        6.2949225170        7.4003980339
  O        -3.5215502414        5.2331222329        6.7794929280
  O        -3.5956064510        7.4679880815        7.3184340370
  C        -6.2584500423        7.1467273309        4.0778865765
  H        -7.2018864753        7.1620259062        4.6862261037
  O        -5.8042352338        6.0508881806        3.6277903665
  O        -5.6141473350        8.2227071687        3.8530055117
  C        -9.2670155991        2.9624473135        4.4549609073
  H        -9.7760873251        3.8307467380        4.7753730710
  O        -8.0580447847        3.0137717908        4.1153681461
  O       -10.0869615960        1.9755230626        4.3964141791
  C        -9.5997958208       -3.5202239981        4.2555074891
  H       -10.6284324694       -3.6062117458        4.7363993397
  O        -9.3836198173       -2.7271085544        3.2939504316
  O        -8.6749593009       -4.3055307223        4.7674147240
  C        -5.4063829718       -6.0836320759       -6.1576393485
  H        -6.0390997038       -6.5934387315       -6.8768176703
  O        -5.3157147411       -6.5042627408       -4.9638375967
  O        -4.7997118332       -5.0931497246       -6.6842330004
  C        -7.4812021438       -7.2683192216       -1.8337008205
  H        -7.8430239833       -7.7214409635       -2.7403108931
  O        -6.3847231004       -6.5596142310       -1.8855223803
  O        -8.0870004405       -7.4369608581       -0.7449951352
  C        -9.2637717352       -3.4248031045       -2.1287629167
  H        -9.5435102925       -4.0726156799       -2.9624854104
  O        -8.1685743898       -2.7562864935       -2.2769679175
  O        -9.8293124780       -3.4993302663       -1.0042472880
  C        -6.7198117275       -1.5155721631       -7.0057360974
  H        -7.7266400310       -1.9701098143       -7.1795729881
  O        -6.3208037730       -1.2812141421       -5.7891801227
  O        -6.0546670581       -1.2647410752       -8.0219575549
  C        -1.9610306020        5.6962737072       -7.4797868569
  H        -1.8068881661        6.7616764611       -7.4798700689
  O        -2.4613788677        5.1953402046       -6.4147373301
  O        -1.7592038190        5.0404242691       -8.5376948407
  C        -1.7153677193        9.0065729983       -3.7807068554
  H        -1.3518565997        9.2891789052       -4.8285272378
  O        -1.7735635219        7.7204009534       -3.5311974415
  O        -1.9589811591        9.8892286280       -2.9296575010
  C         2.5176986766        8.6527359013       -4.1276241396
  H         2.7356319561        9.0838176512       -5.0545617483
  O         2.0941304229        7.4607563111       -4.0382054964
  O         2.6632020791        9.4136986823       -3.1567247192
  C         1.7405814703        5.3615037054       -8.2026998584
  H         1.4592813282        6.4433815072       -8.3446733349
  O         2.2712544771        5.0744229803       -7.0359036782
  O         1.5374971892        4.4786315137       -9.0204193621
  C         9.4791869119        2.6134878200        3.9079418032
  H         9.6264681644        3.4611325178        4.5867541287
  O         8.5294682966        2.7206869475        3.0468687327
  O        10.1884170796        1.5361363159        4.0354546634
  C         6.6320899766        7.0427804887        3.3240585285
  H         7.5183451153        7.1103565644        4.0025867163
  O         6.4921259472        6.1579139584        2.4473334656
  O         5.8014508194        7.8970951585        3.5804466065
  C         4.7468288793        5.8510846562        6.9391041765
  H         5.6837062732        5.7110173508        7.4566454645
  O         4.3315486404        4.9881730889        6.0840680113
  O         4.1390624477        6.9214380767        7.1338855679
  C         7.5642974957        1.7429307679        7.1823006621
  H         8.1116275708        2.6102062210        7.6466333920
  O         6.7423080014        2.0330978891        6.2208765696
  O         7.8434776238        0.5800715711        7.5931108165
     227
 i =        1, time =        1.000, E =        -8.7782589458
 Cd        -8.6193423891        0.4796369342        3.4771660379
 Cd        -5.8715249900       -0.2572064882        7.1143990454
 Cd        -8.4082114163       -2.1541272359        0.3852400727
 Cd        -6.8927316553       -3.2918123771        3.9610971562
 Cd        -3.6901788043       -3.7003778403        7.3823737124
 Cd        -6.4419676013       -6.2357498918        0.4642825592
 Cd        -4.3123543489       -6.8296121119        3.9052081629
 Cd        -6.1163714602        3.8609261413        2.9055519161
 Cd        -3.6066085193        2.8812221339        6.5903992474
 Cd        -6.7534204881        1.1872295117       -0.3192192586
 Cd        -4.0444041069        0.0755170419        3.0501790632
 Cd        -1.7741903629       -0.3125685798        6.8335636494
 Cd        -6.3660828655       -1.4624257139       -3.4401678449
 Cd        -4.3613421493       -3.1217879971       -0.1745576634
 Cd        -2.2426089874       -3.6215640822        3.6336041051
 Cd         0.1787043958       -3.9615852149        7.0369287351
 Cd        -4.2693563238       -5.9882227669       -2.9988609729
 Cd        -2.2487001821       -6.7966165913        0.6791769522
 Cd         0.0677887408       -7.3029806039        3.8542256918
 Cd        -4.0802821331        7.4119364028        2.4182561340
 Cd        -1.6107676143        6.4879276847        6.2509578340
 Cd        -4.3325176759        4.8128033624       -0.6769454510
 Cd        -1.8303888820        3.6695889497        3.1589447899
 Cd         0.4898038289        3.1633474287        6.7205181853
 Cd        -4.5996217742        2.0000994167       -4.0890038999
 Cd        -2.1628826180        1.0181199333       -0.4517497198
 Cd         0.1384273789       -0.0681700678        3.1344059566
 Cd         2.6424461258       -0.6635624652        6.8958877935
 Cd        -4.1540622792       -0.5351515241       -6.9611278275
 Cd        -2.2031728870       -1.8491016029       -3.4900235218
 Cd         0.0358078101       -2.8474732711       -0.0250966989
 Cd         2.4397114218       -3.8215471853        3.5304656385
 Cd         4.5938425053       -4.2151902012        6.5946687081
 Cd        -2.6316825825       -4.5699740173       -6.0785395615
 Cd        -0.3609693877       -6.1210482446       -3.0631257252
 Cd         1.9864065537       -6.8523339386       -0.0374603475
 Cd         4.3578732772       -7.5050445255        3.0973974451
 Cd        -2.4320575541        8.2867253349       -1.2003416473
 Cd         0.1211451403        6.7911370750        2.0747909210
 Cd         2.2580837632        6.3879384430        5.9826378598
 Cd        -2.2740384554        5.5405397970       -4.1121156586
 Cd         0.1544605196        4.6148592813       -0.9823347722
 Cd         2.6165195779        3.7533542615        2.4610266460
 Cd         4.3939121045        2.5015208220        5.6446881565
 Cd        -2.3864758692        3.0937031569       -7.5398948727
 Cd        -0.1312634279        1.7709117257       -4.3474160819
 Cd         2.1531603585        0.8600191673       -0.9631983286
 Cd         4.3034599292       -0.4402628162        2.5248111048
 Cd         6.4920185252       -0.6517887780        6.0104814845
 Cd         0.4042630073       -0.5927781245       -7.0621304268
 Cd         2.1513040544       -1.8410907176       -3.9633273918
 Cd         4.1299644034       -2.9780196114       -0.5482291540
 Cd         6.9198160592       -3.7969777281        2.8855312705
 Cd         1.0695398861       -4.7691923338       -6.7906740071
 Cd         3.6506187165       -5.7625096378       -3.6177110970
 Cd         5.7329569371       -6.5640194290       -0.3327681189
 Cd         2.4551191211        8.1222962630       -1.1565984637
 Cd         4.4053343187        7.2897932773        1.7948226324
 Cd         2.3804039696        5.2452004049       -4.8087204707
 Cd         4.8189736138        4.7184512832       -1.4284022294
 Cd         6.7582244283        3.8401486914        2.0311400000
 Cd         2.6218005038        2.7828929850       -7.7033760088
 Cd         4.8493365744        1.7846646399       -4.5231297609
 Cd         6.7277079542        1.0650149977       -0.9631023871
 Cd         8.8867400257        0.4155710376        2.4347933128
 Cd         4.3617905175       -0.9226064804       -7.7309261868
 Cd         6.7427687656       -1.9756118122       -4.2012686651
 Cd         8.5291279352       -2.6208004365       -0.2527851835
 Se        -9.0547911591        0.2428847821        0.9183169876
 Se        -6.3727660775       -0.6564843426        4.4183094721
 Se        -3.9345343946       -1.3489390759        8.2965377543
 Se        -6.5831294373       -3.7425309962        1.3880854793
 Se        -4.5790843291       -4.2748364886        4.8597320058
 Se        -4.6122341827       -7.7765985281        1.5328371008
 Se        -6.6422775676        3.9855706959        0.4577065747
 Se        -4.0719725986        2.6208501872        3.9142964191
 Se        -1.6333248424        2.0117386772        7.9251405917
 Se        -6.7116805161        0.9828980481       -3.1654748424
 Se        -4.4070732045       -0.2111890507        0.3948901172
 Se        -2.0531402857       -1.1153514638        4.2593884359
 Se         0.4060034107       -1.5661501084        8.0650902437
 Se        -4.4160804568       -3.1299898122       -2.8046693266
 Se        -2.2374481120       -4.0915922652        0.9472058132
 Se         0.1530606560       -4.8127602121        4.4858048508
 Se        -2.4165658967       -7.4206278051       -2.0539512868
 Se        -0.0669612488       -7.8791472855        1.3095373442
 Se        -4.5521415269        7.5948450062       -0.0125969952
 Se        -1.8467599239        6.3633004610        3.5400732795
 Se         0.4037038786        5.8261667472        7.5858851700
 Se        -4.4660406231        4.5539655730       -3.3489562991
 Se        -2.0809900077        3.7152538413        0.3431795176
 Se         0.4982293291        2.6970069451        3.7286790395
 Se         2.7717994509        1.9958738020        7.6262276333
 Se        -4.6131900924        2.0747807186       -6.9049127506
 Se        -2.2788925863        0.8535273459       -3.1260988727
 Se         0.0145523025       -0.1632200061        0.3853963125
 Se         2.3129683852       -1.3189347255        3.9990098769
 Se         4.8631562960       -1.8843014616        7.7354229506
 Se        -2.0702134280       -1.9664174625       -6.4603834302
 Se        -0.0447266952       -3.1599316683       -2.8087923773
 Se         2.2323303787       -4.2314638902        0.7809385844
 Se         4.8362419037       -4.9530949977        4.0967218252
 Se        -0.7551448566       -6.2848298415       -5.8413963669
 Se         1.9250142652       -7.4790589941       -2.6076318626
 Se         4.2593667441       -8.3791936537        0.7364037584
 Se         0.0356429887        7.3686256359       -0.4913417196
 Se         2.3809186467        6.5252199211        3.1424698908
 Se         0.0437188848        4.4288363715       -3.5940012553
 Se         2.5163942373        3.6274401009       -0.0568283475
 Se         4.7727029013        2.4661896774        3.1253327901
 Se         0.0455229356        1.9299744423       -6.9705088350
 Se         2.2758313857        0.7648374463       -3.6570719441
 Se         4.3766558191       -0.2853664504       -0.0178004619
 Se         6.9677219590       -1.1294313676        3.5582459385
 Se         2.2370026588       -2.2681822980       -6.6837695259
 Se         4.3737433310       -3.1974959583       -3.2156675980
 Se         6.4331631344       -4.1116865541        0.4129747230
 Se         4.8515483499        7.5524237039       -0.7459245976
 Se         4.8774926115        4.5489903404       -4.0122326661
 Se         7.0856015753        3.5934590594       -0.6429055201
 Se         4.7816967887        1.5264223403       -7.5555497447
 Se         6.9185626154        0.6112277607       -3.7073755462
 Se         9.1068759187       -0.0626920935       -0.0923338723
  C         6.9966797084       -6.9498474379       -2.8612692086
  H         7.7649322095       -7.1224747738       -3.6684216540
  O         5.8439933100       -6.4672205201       -3.1401076779
  O         7.2885175384       -7.2741344726       -1.6935933028
  C         3.3950624977       -6.2673102565       -6.9491850127
  H         4.3444066225       -6.8936096686       -7.0753272229
  O         3.0188382448       -5.7908973755       -5.7819811231
  O         2.6177144932       -6.1689217800       -7.9239912485
  C         6.3106280886       -2.9078481700       -7.4910638952
  H         7.1299137504       -3.7048862282       -7.4466889051
  O         6.0085483707       -2.3181976135       -6.3474169433
  O         5.9393696769       -2.4742462092       -8.6124764405
  C         8.9774542414       -3.3708792244       -3.4296517155
  H         9.9250180562       -3.8774829974       -3.1826003730
  O         8.5682781877       -3.4148728749       -4.6046261785
  O         8.2717390525       -2.6966801483       -2.5200286388
  C         9.7980802166       -4.6252030884        2.1810003009
  H        10.6408655401       -5.3318691344        2.3887999993
  O         9.7470920680       -4.1805073529        0.9925833117
  O         9.0285866340       -4.5681269653        3.1870431364
  C        -2.8217333518       -8.8884440761        5.3598596932
  H        -2.4154187803       -9.9024293192        5.4343946394
  O        -1.9847316663       -7.9306607490        5.0423386642
  O        -4.0904679852       -8.7274530171        5.4044219191
  C         2.9969234097       -8.6916287989        5.2874256608
  H         2.6967725338       -9.0398269484        6.2934215078
  O         1.9993176562       -8.3578770642        4.5594231673
  O         4.2233774628       -8.6005702684        4.9154611619
  C         2.8793074992       -5.7053265660        8.2324327144
  H         2.3955873073       -6.3773024893        8.9303283437
  O         2.2189606428       -4.8088304938        7.6163615733
  O         4.1498428697       -5.9034791212        8.1536082075
  C        -2.5347147102       -5.9173471438        8.5220140707
  H        -2.0052498086       -6.7390725628        9.0096019785
  O        -1.9214099429       -5.2583542420        7.5983363638
  O        -3.6522445113       -5.5084142756        8.8927733289
  C        -6.8630692568        2.3027049857        7.3892152249
  H        -7.2086193538        3.3071349018        7.3885257928
  O        -5.6213020944        2.1591202878        7.5337112170
  O        -7.6695628595        1.3702675785        7.1999508636
  C        -4.1169944632        6.2828081216        7.2281975693
  H        -5.2418933127        6.2896177269        7.3832000201
  O        -3.5266799105        5.2290442881        6.7738404581
  O        -3.5910956786        7.4673411649        7.3180686686
  C        -6.2567460526        7.1462489378        4.0780904015
  H        -7.2111390447        7.1649409639        4.6689854642
  O        -5.8090624384        6.0478496529        3.6278737372
  O        -5.6127691945        8.2207319315        3.8487181945
  C        -9.2742278526        2.9617611646        4.4604749134
  H        -9.7855372140        3.8838940690        4.7760086716
  O        -8.0588313838        3.0119120475        4.1192804528
  O       -10.0811066314        1.9792671630        4.3921925291
  C        -9.6032849791       -3.5282231927        4.2551701381
  H       -10.5971720209       -3.6001750875        4.7566807035
  O        -9.3833003009       -2.7227962901        3.2942649052
  O        -8.6785955635       -4.3016813214        4.7629782653
  C        -5.4081381529       -6.0792392243       -6.1562002010
  H        -6.0546960796       -6.5859836395       -6.8890942905
  O        -5.3110469049       -6.5041050100       -4.9651973417
  O        -4.7984106786       -5.0927497133       -6.6853180904
  C        -7.4874971983       -7.2705818263       -1.8347926931
  H        -7.8388434959       -7.7173330376       -2.7530342297
  O        -6.3887528005       -6.5550020647       -1.8843041270
  O        -8.0717031338       -7.4409231267       -0.7458368250
  C        -9.2562862011       -3.4269950916       -2.1219784245
  H        -9.5270787848       -4.0663584857       -2.9594189931
  O        -8.1698357928       -2.7554124552       -2.2727212877
  O        -9.8242368607       -3.4939714285       -1.0092128646
  C        -6.7207132335       -1.5101391785       -7.0046064828
  H        -7.7450574417       -1.9674181007       -7.1698505571
  O        -6.3198533997       -1.2781057899       -5.7990163394
  O        -6.0633154801       -1.2634628074       -8.0155247687
  C        -1.9629149393        5.6954918254       -7.4853241295
  H        -1.7770888886        6.7764005651       -7.4923242406
  O        -2.4611925414        5.1867237810       -6.4087120420
  O        -1.7564060814        5.0404268534       -8.5283676453
  C        -1.7169005412        9.0075174437       -3.7839131846
  H        -1.3493405476        9.2660238074       -4.8465614694
  O        -1.7700470294        7.7194766559       -3.5246321360
  O        -1.9637529916        9.8895988862       -2.9408531528
  C         2.5062467189        8.6538949155       -4.1272904615
  H         2.7131102182        9.0638249498       -5.0476060874
  O         2.0944618971        7.4532450642       -4.0307287211
  O         2.6627631182        9.4111750806       -3.1552494728
  C         1.7411676331        5.3672438410       -8.1968741351
  H         1.4358383610        6.4416008070       -8.3632925476
  O         2.2781615472        5.0766167336       -7.0407144699
  O         1.5312340988        4.4833637732       -9.0175909338
  C         9.4768975905        2.6096293324        3.8999955141
  H         9.6131090334        3.4671477718        4.5843902861
  O         8.5280041839        2.7173665472        3.0491849706
  O        10.1885564836        1.5401551491        4.0331053940
  C         6.6326657971        7.0383163454        3.3281982044
  H         7.5082674956        7.1289998248        4.0070788575
  O         6.4945019948        6.1604268134        2.4465604225
  O         5.7954933983        7.9030184008        3.5812982444
  C         4.7447640107        5.8524880792        6.9354097586
  H         5.7085862008        5.7040540943        7.4370666698
  O         4.3286019560        4.9885535304        6.0815372147
  O         4.1456709406        6.9224129596        7.1371793542
  C         7.5603404562        1.7452803987        7.1878960678
  H         8.1158840311        2.6116602203        7.6593692779
  O         6.7458787758        2.0302559641        6.2244607502
  O         7.8435179529        0.5821549976        7.5895444709
     227
 i =        2, time =        2.000, E =        -8.7927631296
 Cd        -8.6169968883        0.4782961045        3.4767518591
 Cd        -5.8707214295       -0.2577010537        7.1136598107
 Cd        -8.4088491096       -2.1551452812        0.3836955905
 Cd        -6.8897027791       -3.2939481523        3.9621528023