     227
 i =        0, time =        0.000, E =       -11.1962481877
 Cd        -8.6216924880        0.4810107428        3.4775887729
 Cd        -5.8723589632       -0.2566559957        7.1151373767
 Cd        -8.4076147924       -2.1531404527        0.3867588804
 Cd        -6.8957642261       -3.2896665849        3.9600318291
 Cd        -3.6930098048       -3.6992689615        7.3819491709
 Cd        -6.4429261463       -6.2347087238        0.4622469067
 Cd        -4.3123952394       -6.8285875372        3.9039095072
 Cd        -6.1141073353        3.8626235599        2.9066844924
 Cd        -3.6048790416        2.8797284733        6.5917986711
 Cd        -6.7531255596        1.1841266196       -0.3182182747
 Cd        -4.0437606329        0.0729837467        3.0511954168
 Cd        -1.7753257667       -0.3121054857        6.8316599018
 Cd        -6.3661028473       -1.4630135273       -3.4383357626
 Cd        -4.3602814436       -3.1214810613       -0.1759283953
 Cd        -2.2424276819       -3.6242998489        3.6335413818
 Cd         0.1757294635       -3.9625201566        7.0364714760
 Cd        -4.2692200317       -5.9860442556       -3.0005266361
 Cd        -2.2482225396       -6.7972628816        0.6786391664
 Cd         0.0669003827       -7.3030327295        3.8545421700
 Cd        -4.0792754193        7.4105475565        2.4175118797
 Cd        -1.6116442377        6.4880648240        6.2478272306
 Cd        -4.3308002626        4.8127262164       -0.6762739309
 Cd        -1.8326132452        3.6694977750        3.1598212265
 Cd         0.4939817277        3.1637060931        6.7202662426
 Cd        -4.5980154021        1.9988297698       -4.0880170010
 Cd        -2.1651194586        1.0165564496       -0.4536921834
 Cd         0.1376109507       -0.0659106884        3.1336818174
 Cd         2.6419074521       -0.6636939286        6.8958319365
 Cd        -4.1515129292       -0.5348426091       -6.9620217917
 Cd        -2.2012490343       -1.8491984656       -3.4894107829
 Cd         0.0359311218       -2.8494155653       -0.0264680683
 Cd         2.4407298775       -3.8224684908        3.5289587884
 Cd         4.5907434619       -4.2169180472        6.5928471603
 Cd        -2.6321953796       -4.5685798778       -6.0773989300
 Cd        -0.3638438279       -6.1221236347       -3.0620735359
 Cd         1.9882729153       -6.8506852632       -0.0376753302
 Cd         4.3604701588       -7.5063202656        3.0981086138
 Cd        -2.4313710890        8.2839908015       -1.2010761441
 Cd         0.1210964618        6.7915494583        2.0748938605
 Cd         2.2602783261        6.3879934074        5.9824457591
 Cd        -2.2743307721        5.5403016700       -4.1096429978
 Cd         0.1552258413        4.6164378819       -0.9814446932
 Cd         2.6173372932        3.7540356816        2.4616712460
 Cd         4.3934694910        2.5024270436        5.6448470259
 Cd        -2.3839877703        3.0961459608       -7.5397423510
 Cd        -0.1308699873        1.7716472388       -4.3458913396
 Cd         2.1522040622        0.8595996928       -0.9600505658
 Cd         4.3027041934       -0.4425155449        2.5248589789
 Cd         6.4943132815       -0.6514444341        6.0110723312
 Cd         0.4032906214       -0.5920449882       -7.0625722312
 Cd         2.1504065746       -1.8410095193       -3.9631978812
 Cd         4.1282053355       -2.9764966895       -0.5499119195
 Cd         6.9189885741       -3.8001688729        2.8840486736
 Cd         1.0693858855       -4.7693596381       -6.7909688629
 Cd         3.6529341800       -5.7620820022       -3.6150795142
 Cd         5.7341856059       -6.5625995016       -0.3323817960
 Cd         2.4532379782        8.1225833618       -1.1556872380
 Cd         4.4025673150        7.2904811152        1.7928276254
 Cd         2.3800547108        5.2453457502       -4.8107637235
 Cd         4.8184663347        4.7191125514       -1.4277792117
 Cd         6.7589411702        3.8390778732        2.0295448973
 Cd         2.6210634084        2.7844913241       -7.7035228004
 Cd         4.8495943395        1.7843685348       -4.5225056138
 Cd         6.7261500983        1.0662237140       -0.9642295531
 Cd         8.8881450478        0.4141445330        2.4369093904
 Cd         4.3615782352       -0.9213178924       -7.7328888960
 Cd         6.7438649008       -1.9767569930       -4.2031112584
 Cd         8.5272445020       -2.6218905711       -0.2551455218
 Se        -9.0557725106        0.2424574140        0.9180313808
 Se        -6.3745872764       -0.6570220647        4.4225742627
 Se        -3.9358548519       -1.3506397678        8.2925868769
 Se        -6.5830028390       -3.7408669090        1.3890860046
 Se        -4.5802302415       -4.2716541219        4.8585926421
 Se        -4.6110671623       -7.7792240778        1.5343213278
 Se        -6.6407812351        3.9866809498        0.4586064126
 Se        -4.0705866514        2.6241591830        3.9150270775
 Se        -1.6315747320        2.0143859544        7.9219454430
 Se        -6.7106235468        0.9827493806       -3.1628202938
 Se        -4.4077684895       -0.2106461950        0.3970531668
 Se        -2.0534879979       -1.1190641497        4.2604482105
 Se         0.4069246601       -1.5676855049        8.0617057342
 Se        -4.4126107232       -3.1307459794       -2.8028288282
 Se        -2.2371864822       -4.0884616040        0.9473336128
 Se         0.1541797359       -4.8148952714        4.4843326207
 Se        -2.4147106009       -7.4199706225       -2.0529393442
 Se        -0.0662571417       -7.8800811154        1.3078284855
 Se        -4.5519687636        7.5920037884       -0.0122560791
 Se        -1.8482840651        6.3647212661        3.5390459072
 Se         0.4006735392        5.8241498358        7.5878867146
 Se        -4.4655945585        4.5529209660       -3.3484418515
 Se        -2.0798083538        3.7153034916        0.3451575142
 Se         0.4973892782        2.6967113851        3.7286137790
 Se         2.7724753484        1.9958260876        7.6298945277
 Se        -4.6126224962        2.0736182894       -6.9031574659
 Se        -2.2770211290        0.8531533747       -3.1284312065
 Se         0.0138865169       -0.1636477002        0.3858468104
 Se         2.3115473387       -1.3198431962        4.0017354986
 Se         4.8624545925       -1.8855864388        7.7371297607
 Se        -2.0700877949       -1.9675257511       -6.4603372509
 Se        -0.0447057629       -3.1582708631       -2.8090856920
 Se         2.2343306950       -4.2299664240        0.7817840723
 Se         4.8342987615       -4.9516929708        4.0974643468
 Se        -0.7556003326       -6.2829108386       -5.8406699955
 Se         1.9243057511       -7.4784768035       -2.6074198353
 Se         4.2543989663       -8.3809591814        0.7363809319
 Se         0.0386925703        7.3677075300       -0.4939635450
 Se         2.3791568525        6.5289221229        3.1400383851
 Se         0.0465974103        4.4270318221       -3.5936563407
 Se         2.5167269427        3.6273521599       -0.0581806204
 Se         4.7705604635        2.4670139639        3.1233546104
 Se         0.0435933033        1.9323944164       -6.9695738842
 Se         2.2733127965        0.7623703678       -3.6584263160
 Se         4.3816175435       -0.2841549253       -0.0177063702
 Se         6.9670500347       -1.1290204494        3.5565582379
 Se         2.2410869402       -2.2702007814       -6.6798205275
 Se         4.3723294721       -3.1971869108       -3.2130677403
 Se         6.4331938555       -4.1098532443        0.4136420186
 Se         4.8503033307        7.5509093293       -0.7463548497
 Se         4.8776288797        4.5477652435       -4.0091414448
 Se         7.0830986217        3.5950723552       -0.6434567968
 Se         4.7810064642        1.5273410534       -7.5566303287
 Se         6.9188050062        0.6130038217       -3.7081238627
 Se         9.1066871843       -0.0609359671       -0.0919647969
  C         6.9955771113       -6.9586634775       -2.8583426301
  H         7.7780160969       -7.1271873265       -3.6573399650
  O         5.8389952916       -6.4652991204       -3.1445809228
  O         7.2920676004       -7.2683568805       -1.6893132711
  C         3.3939431960       -6.2668607509       -6.9513074648
  H         4.3245440932       -6.8689211647       -7.0591687882
  O         3.0202466073       -5.7860511295       -5.7843136273
  O         2.6220129789       -6.1746538788       -7.9242101403
  C         6.3116555909       -2.9071154185       -7.4921130606
  H         7.0978863851       -3.7212906458       -7.4285512081
  O         6.0096715894       -2.3219711192       -6.3505932827
  O         5.9403243477       -2.4750431756       -8.6116316973
  C         8.9837561036       -3.3697375837       -3.4349055328
  H         9.9249943929       -3.8864043165       -3.1840078659
  O         8.5659407989       -3.4209184445       -4.6048832464
  O         8.2714489672       -2.6971151254       -2.5207012617
  C         9.7902109758       -4.6282247391        2.1768529346
  H        10.6284324694       -5.3337138149        2.3552924638
  O         9.7484501532       -4.1824896055        0.9942458601
  O         9.0219926648       -4.5705851174        3.1873629795
  C        -2.8252708508       -8.8894178348        5.3653894160
  H        -2.3915771747       -9.8892286280        5.4446685031
  O        -1.9808601030       -7.9304545651        5.0436955975
  O        -4.0908415257       -8.7280019527        5.4030844137
  C         3.0047406823       -8.6887063298        5.2919739424
  H         2.6853413808       -9.0312323512        6.2714246943
  O         1.9985977812       -8.3553887881        4.5599054594
  O         4.2197147413       -8.6069092298        4.9235206312
  C         2.8732291572       -5.7090624943        8.2322507888
  H         2.4095730423       -6.3582442170        8.9295273658
  O         2.2236878889       -4.8031284854        7.6183804854
  O         4.1525405945       -5.8988692439        8.1468427445
  C        -2.5324052264       -5.9090323801        8.5168983878
  H        -2.0058427467       -6.7599986745        9.0204193621
  O        -1.9189018681       -5.2527647032        7.5983339134
  O        -3.6521974131       -5.4981014961        8.8936623702
  C        -6.8661340661        2.3082426882        7.3884767521
  H        -7.2433530482        3.2983326111        7.3747512577
  O        -5.6189307919        2.1553364867        7.5292857639
  O        -7.6694328727        1.3672322100        7.2032576312
  C        -4.1128935570        6.2776012356        7.2258109093
  H        -5.2184092536        6.2949225170        7.4003980339
  O        -3.5215502414        5.2331222329        6.7794929280
  O        -3.5956064510        7.4679880815        7.3184340370
  C        -6.2584500423        7.1467273309        4.0778865765
  H        -7.2018864753        7.1620259062        4.6862261037
  O        -5.8042352338        6.0508881806        3.6277903665
  O        -5.6141473350        8.2227071687        3.8530055117
  C        -9.2670155991        2.9624473135        4.4549609073
  H        -9.7760873251        3.8307467380        4.7753730710
  O        -8.0580447847        3.0137717908        4.1153681461
  O       -10.0869615960        1.9755230626        4.3964141791
  C        -9.5997958208       -3.5202239981        4.2555074891
  H       -10.6284324694       -3.6062117458        4.7363993397
  O        -9.3836198173       -2.7271085544        3.2939504316
  O        -8.6749593009       -4.3055307223        4.7674147240
  C        -5.4063829718       -6.0836320759       -6.1576393485
  H        -6.0390997038       -6.5934387315       -6.8768176703
  O        -5.3157147411       -6.5042627408       -4.9638375967
  O        -4.7997118332       -5.0931497246       -6.6842330004
  C        -7.4812021438       -7.2683192216       -1.8337008205
  H        -7.8430239833       -7.7214409635       -2.7403108931
  O        -6.3847231004       -6.5596142310       -1.8855223803
  O        -8.0870004405       -7.4369608581       -0.7449951352
  C        -9.2637717352       -3.4248031045       -2.1287629167
  H        -9.5435102925       -4.0726156799       -2.9624854104
  O        -8.1685743898       -2.7562864935       -2.2769679175
  O        -9.8293124780       -3.4993302663       -1.0042472880
  C        -6.7198117275       -1.5155721631       -7.0057360974
  H        -7.7266400310       -1.9701098143       -7.1795729881
  O        -6.3208037730       -1.2812141421       -5.7891801227
  O        -6.0546670581       -1.2647410752       -8.0219575549
  C        -1.9610306020        5.6962737072       -7.4797868569
  H        -1.8068881661        6.7616764611       -7.4798700689
  O        -2.4613788677        5.1953402046       -6.4147373301
  O        -1.7592038190        5.0404242691       -8.5376948407
  C        -1.7153677193        9.0065729983       -3.7807068554
  H        -1.3518565997        9.2891789052       -4.8285272378
  O        -1.7735635219        7.7204009534       -3.5311974415
  O        -1.9589811591        9.8892286280       -2.9296575010
  C         2.5176986766        8.6527359013       -4.1276241396
  H         2.7356319561        9.0838176512       -5.0545617483
  O         2.0941304229        7.4607563111       -4.0382054964
  O         2.6632020791        9.4136986823       -3.1567247192
  C         1.7405814703        5.3615037054       -8.2026998584
  H         1.4592813282        6.4433815072       -8.3446733349
  O         2.2712544771        5.0744229803       -7.0359036782
  O         1.5374971892        4.4786315137       -9.0204193621
  C         9.4791869119        2.6134878200        3.9079418032
  H         9.6264681644        3.4611325178        4.5867541287
  O         8.5294682966        2.7206869475        3.0468687327
  O        10.1884170796        1.5361363159        4.0354546634
  C         6.6320899766        7.0427804887        3.3240585285
  H         7.5183451153        7.1103565644        4.0025867163
  O         6.4921259472        6.1579139584        2.4473334656
  O         5.8014508194        7.8970951585        3.5804466065
  C         4.7468288793        5.8510846562        6.9391041765
  H         5.6837062732        5.7110173508        7.4566454645
  O         4.3315486404        4.9881730889        6.0840680113
  O         4.1390624477        6.9214380767        7.1338855679
  C         7.5642974957        1.7429307679        7.1823006621
  H         8.1116275708        2.6102062210        7.6466333920
  O         6.7423080014        2.0330978891        6.2208765696
  O         7.8434776238        0.5800715711        7.5931108165
     227
 i =        1, time =        1.000, E =       -11.2054451734
 Cd        -8.6193415532        0.4796392206        3.4771735373
 Cd        -5.8715436950       -0.2571932965        7.1143931013
 Cd        -8.4082189351       -2.1541404630        0.3852303741
 Cd        -6.8927282326       -3.2918032237        3.9610971871
 Cd        -3.6901790717       -3.7003940726        7.3823730822
 Cd        -6.4419766446       -6.2357532180        0.4642772565
 Cd        -4.3123508517       -6.8296154902        3.9052246755
 Cd        -6.1163829932        3.8609282886        2.9055715600
 Cd        -3.6066250346        2.8812300818        6.5903971335
 Cd        -6.7534248688        1.1872352634       -0.3192223163
 Cd        -4.0444177909        0.0755177371        3.0501793731
 Cd        -1.7741886466       -0.3125804436        6.8335707136
 Cd        -6.3660931727       -1.4624488964       -3.4401718390
 Cd        -4.3613550692       -3.1217813618       -0.1745529423
 Cd        -2.2426092021       -3.6215765960        3.6336059363
 Cd         0.1786968245       -3.9615928709        7.0369340416
 Cd        -4.2693735989       -5.9882153381       -2.9988640499
 Cd        -2.2487152895       -6.7966158321        0.6791665232
 Cd         0.0677840648       -7.3029966922        3.8542328496
 Cd        -4.0802809951        7.4119322016        2.4182770211
 Cd        -1.6107881965        6.4879377091        6.2509543764
 Cd        -4.3325258548        4.8128097338       -0.6769479260
 Cd        -1.8303931778        3.6695975816        3.1589387254
 Cd         0.4898050467        3.1633464628        6.7205216045
 Cd        -4.5996145035        2.0001077281       -4.0890164775
 Cd        -2.1628930456        1.0181294414       -0.4517518701
 Cd         0.1384277759       -0.0681644640        3.1344089366
 Cd         2.6424439878       -0.6635593301        6.8958913676
 Cd        -4.1540765476       -0.5351498113       -6.9611287508
 Cd        -2.2031785489       -1.8490961227       -3.4900317229
 Cd         0.0358063072       -2.8474820353       -0.0250985264
 Cd         2.4397144343       -3.8215629796        3.5304623776
 Cd         4.5938385443       -4.2151975462        6.5946781302
 Cd        -2.6316967274       -4.5699712411       -6.0785414367
 Cd        -0.3609651659       -6.1210490045       -3.0631319064
 Cd         1.9864107009       -6.8523398683       -0.0374582969
 Cd         4.3578722457       -7.5050288826        3.0973952620
 Cd        -2.4320450345        8.2867336477       -1.2003586915
 Cd         0.1211451556        6.7911454822        2.0747754415
 Cd         2.2580997320        6.3879413576        5.9826263227
 Cd        -2.2740312068        5.5405511183       -4.1121262657
 Cd         0.1544588201        4.6148644837       -0.9823327318
 Cd         2.6165174108        3.7533635586        2.4610417787
 Cd         4.3939222348        2.5015287331        5.6447017665
 Cd        -2.3864662456        3.0937096597       -7.5398984948
 Cd        -0.1312622421        1.7709204467       -4.3474157505
 Cd         2.1531651814        0.8600269955       -0.9632009523
 Cd         4.3034735674       -0.4402571954        2.5248229804
 Cd         6.4920245257       -0.6517770035        6.0104986534
 Cd         0.4042488023       -0.5927817697       -7.0621366647
 Cd         2.1513066334       -1.8411010803       -3.9633306428
 Cd         4.1299749120       -2.9780176344       -0.5482323695
 Cd         6.9198194728       -3.7969724532        2.8855442902
 Cd         1.0695557616       -4.7691885491       -6.7906796819
 Cd         3.6506285015       -5.7625129053       -3.6177107927
 Cd         5.7329542364       -6.5640137962       -0.3327712022
 Cd         2.4551059267        8.1223064036       -1.1566153318
 Cd         4.4053522981        7.2897975115        1.7948256510
 Cd         2.3804049530        5.2452074152       -4.8087136294
 Cd         4.8189721383        4.7184595200       -1.4283956917
 Cd         6.7582327161        3.8401552896        2.0311406986
 Cd         2.6217828486        2.7829099197       -7.7033790933
 Cd         4.8493245880        1.7846762729       -4.5231392947
 Cd         6.7277116368        1.0650031569       -0.9631080813
 Cd         8.8867431246        0.4155762783        2.4348015363
 Cd         4.3617971368       -0.9226335503       -7.7309269709
 Cd         6.7427712762       -1.9756189112       -4.2012660838
 Cd         8.5291336605       -2.6208036840       -0.2527870686
 Se        -9.0547978073        0.2429023874        0.9183075258
 Se        -6.3727669114       -0.6564855614        4.4183133217
 Se        -3.9345243550       -1.3489384953        8.2965606057
 Se        -6.5831221185       -3.7425389769        1.3880703227
 Se        -4.5790751005       -4.2748564626        4.8597447388
 Se        -4.6122376289       -7.7766101290        1.5328335983
 Se        -6.6422867904        3.9855622479        0.4576782552
 Se        -4.0719665904        2.6208459213        3.9143068038
 Se        -1.6333108045        2.0117552334        7.9251519503
 Se        -6.7117119757        0.9829177959       -3.1654531796
 Se        -4.4070760810       -0.2111931124        0.3948909178
 Se        -2.0531266677       -1.1153396592        4.2593925994
 Se         0.4059996404       -1.5661548323        8.0650938349
 Se        -4.4160777315       -3.1300038770       -2.8046792620
 Se        -2.2374336450       -4.0915900904        0.9472085107
 Se         0.1530522370       -4.8127495330        4.4858090515
 Se        -2.4165631189       -7.4206397745       -2.0539465189
 Se        -0.0669407847       -7.8791635419        1.3095467674
 Se        -4.5521591459        7.5948463824       -0.0126205973
 Se        -1.8467799633        6.3633064047        3.5400943524
 Se         0.4037073717        5.8261595267        7.5859119797
 Se        -4.4660579465        4.5539697010       -3.3489524550
 Se        -2.0809811426        3.7152471440        0.3431752383
 Se         0.4982335262        2.6969959498        3.7286920570
 Se         2.7717972293        1.9958715085        7.6262276758
 Se        -4.6132052533        2.0747724766       -6.9049128407
 Se        -2.2788932552        0.8535176916       -3.1261033110
 Se         0.0145624393       -0.1632250022        0.3854014042
 Se         2.3129733563       -1.3189096898        3.9990252545
 Se         4.8631630736       -1.8843008857        7.7354273351
 Se        -2.0701975560       -1.9664195610       -6.4603824316
 Se        -0.0447144775       -3.1599382028       -2.8087885745
 Se         2.2323220162       -4.2314623195        0.7809391499
 Se         4.8362415904       -4.9531049151        4.0967236496
 Se        -0.7551483028       -6.2848495562       -5.8413946828
 Se         1.9250124907       -7.4790604487       -2.6076371341
 Se         4.2593621612       -8.3792135580        0.7363927894
 Se         0.0356383919        7.3686271434       -0.4913352803
 Se         2.3809269738        6.5252160537        3.1424960379
 Se         0.0437284399        4.4288288232       -3.5940091196
 Se         2.5163882505        3.6274396853       -0.0568640572
 Se         4.7727127505        2.4661740110        3.1253259316
 Se         0.0455189397        1.9299808978       -6.9705232627
 Se         2.2758340820        0.7648448124       -3.6570666388
 Se         4.3766591715       -0.2853678422       -0.0178188349
 Se         6.9677181597       -1.1294417085        3.5582310830
 Se         2.2370098748       -2.2681956499       -6.6837752242
 Se         4.3737415934       -3.1974913057       -3.2156645825
 Se         6.4331511016       -4.1116901904        0.4129559841
 Se         4.8515752972        7.5524193047       -0.7459261720
 Se         4.8774848969        4.5489878448       -4.0122528194
 Se         7.0856098683        3.5934765275       -0.6428919649
 Se         4.7817222741        1.5264401566       -7.5555470017
 Se         6.9185803889        0.6112212789       -3.7073665827
 Se         9.1068861558       -0.0626923786       -0.0923405650
  C         6.9966766584       -6.9498307733       -2.8612699808
  H         7.7649322095       -7.1224747738       -3.6684216540
  O         5.8440265235       -6.4672392020       -3.1400750469
  O         7.2886119355       -7.2741694690       -1.6936824103
  C         3.3950699171       -6.2673011341       -6.9491759939
  H         4.3444066225       -6.8936096686       -7.0753272229
  O         3.0188260833       -5.7908900055       -5.7820475343
  O         2.6177226227       -6.1689171924       -7.9239921588
  C         6.3106277661       -2.9078537612       -7.4910451767
  H         7.1299137504       -3.7048862282       -7.4466889051
  O         6.0085248518       -2.3181949551       -6.3474844537
  O         5.9393681878       -2.4742506207       -8.6124711722
  C         8.9774408668       -3.3708825946       -3.4296451620
  H         9.9250180562       -3.8774829974       -3.1826003730
  O         8.5682855427       -3.4148839649       -4.6046185589
  O         8.2717328490       -2.6967042863       -2.5200848257
  C         9.7980675721       -4.6251981265        2.1809952851
  H        10.6408655401       -5.3318691344        2.3887999993
  O         9.7471246194       -4.1805183653        0.9926164717
  O         9.0286431344       -4.5681427095        3.1870514779
  C        -2.8217283098       -8.8884308441        5.3598597801
  H        -2.4154187803       -9.9024293192        5.4343946394
  O        -1.9847557246       -7.9306455259        5.0423304936
  O        -4.0904594263       -8.7274392623        5.4044206609
  C         2.9969199184       -8.6916148424        5.2874278224
  H         2.6967725338       -9.0398269484        6.2934215078
  O         1.9993776105       -8.3578810576        4.5594326022
  O         4.2233562781       -8.6006709157        4.9156362127
  C         2.8793004579       -5.7053274814        8.2324219154
  H         2.3955873073       -6.3773024893        8.9303283437
  O         2.2190307597       -4.8088533468        7.6163528754
  O         4.1498281681       -5.9034984878        8.1536130071
  C        -2.5347114547       -5.9173487347        8.5219979782
  H        -2.0052498086       -6.7390725628        9.0096019785
  O        -1.9213915986       -5.2583547134        7.5983371710
  O        -3.6522407931       -5.5084272530        8.8927747675
  C        -6.8630665051        2.3027071482        7.3891968703
  H        -7.2086193538        3.3071349018        7.3885257928
  O        -5.6213341248        2.1591084052        7.5337133522
  O        -7.6695539511        1.3702715995        7.1999514046
  C        -4.1169988172        6.2827998615        7.2281848296
  H        -5.2418933127        6.2896177269        7.3832000201
  O        -3.5267004515        5.2290530319        6.7738398016
  O        -3.5910845735        7.4673302488        7.3180515558
  C        -6.2567397777        7.1462375983        4.0780951193
  H        -7.2111390447        7.1649409639        4.6689854642
  O        -5.8090416923        6.0478961824        3.6278913140
  O        -5.6128048471        8.2207423521        3.8487652574
  C        -9.2742135509        2.9617531110        4.4604792779
  H        -9.7855372140        3.8838940690        4.7760086716
  O        -8.0588320547        3.0118939248        4.1192834317
  O       -10.0811283219        1.9792975191        4.3922176722
  C        -9.6032751921       -3.5282176588        4.2551643212
  H       -10.5971720209       -3.6001750875        4.7566807035
  O        -9.3832780268       -2.7227837157        3.2942718968
  O        -8.6786876540       -4.3017300795        4.7630211659
  C        -5.4081383493       -6.0792297125       -6.1561900437
  H        -6.0546960796       -6.5859836395       -6.8890942905
  O        -5.3110559622       -6.5040957900       -4.9652478706
  O        -4.7984451294       -5.0927520642       -6.6853139246
  C        -7.4874910477       -7.2705665475       -1.8347952797
  H        -7.8388434959       -7.7173330376       -2.7530342297
  O        -6.3887541771       -6.5549892263       -1.8843177434
  O        -8.0717046121       -7.4409194617       -0.7458406652
  C        -9.2562722155       -3.4270003725       -2.1219739384
  H        -9.5270787848       -4.0663584857       -2.9594189931
  O        -8.1698294623       -2.7554075734       -2.2726963974
  O        -9.8242283441       -3.4939760077       -1.0092194780
  C        -6.7207076004       -1.5101482784       -7.0045964195
  H        -7.7450574417       -1.9674181007       -7.1698505571
  O        -6.3198203409       -1.2781248179       -5.7990590181
  O        -6.0633470303       -1.2634894461       -8.0155377881
  C        -1.9629045742        5.6954894485       -7.4853143688
  H        -1.7770888886        6.7764005651       -7.4923242406
  O        -2.4611776296        5.1867339904       -6.4087446298
  O        -1.7563883132        5.0404709158       -8.5283782560
  C        -1.7168903337        9.0075060878       -3.7839142903
  H        -1.3493405476        9.2660238074       -4.8465614694
  O        -1.7700503680        7.7195233907       -3.5246239071
  O        -1.9637504852        9.8895878905       -2.9408491522
  C         2.5062378103        8.6538850642       -4.1272906587
  H         2.7131102182        9.0638249498       -5.0476060874
  O         2.0944584775        7.4532737800       -4.0307041135
  O         2.6627500204        9.4111785933       -3.1552582298
  C         1.7411555917        5.3672425131       -8.1968646942
  H         1.4358383610        6.4416008070       -8.3632925476
  O         2.2781485556        5.0766115866       -7.0408002163
  O         1.5312425593        4.4833696740       -9.0175858210
  C         9.4768802893        2.6096273220        3.9000002567
  H         9.6131090334        3.4671477718        4.5843902861
  O         8.5280315502        2.7173548047        3.0492093410
  O        10.1885587402        1.5401640395        4.0331162995
  C         6.6326593846        7.0383032282        3.3282037774
  H         7.5082674956        7.1289998248        4.0070788575
  O         6.4944852862        6.1604399192        2.4465748121
  O         5.7955031577        7.9030139438        3.5813120428
  C         4.7447677160        5.8524822586        6.9353969411
  H         5.7085862008        5.7040540943        7.4370666698
  O         4.3285917086        4.9885513326        6.0815211626
  O         4.1457231043        6.9224228153        7.1371965057
  C         7.5603373849        1.7452810344        7.1878814399
  H         8.1158840311        2.6116602203        7.6593692779
  O         6.7458785985        2.0302318727        6.2244582787
  O         7.8435177032        0.5821590484        7.5895300956
     227
 i =        2, time =        2.000, E =       -11.2203071606
 Cd        -8.6169937674        0.4783052601        3.4767818729
 Cd        -5.8707960180       -0.2576481919        7.1136360717
 Cd        -8.4088789538       -2.1551977212        0.3836571125
 Cd        -6.8896880525       -3.2939121036        3.9621514293