     227
 i =        0, time =        0.000, E =       -16.7293428352
 Cd        -8.6216924880        0.4810107428        3.4775887729
 Cd        -5.8723589632       -0.2566559957        7.1151373767
 Cd        -8.4076147924       -2.1531404527        0.3867588804
 Cd        -6.8957642261       -3.2896665849        3.9600318291
 Cd        -3.6930098048       -3.6992689615        7.3819491709
 Cd        -6.4429261463       -6.2347087238        0.4622469067
 Cd        -4.3123952394       -6.8285875372        3.9039095072
 Cd        -6.1141073353        3.8626235599        2.9066844924
 Cd        -3.6048790416        2.8797284733        6.5917986711
 Cd        -6.7531255596        1.1841266196       -0.3182182747
 Cd        -4.0437606329        0.0729837467        3.0511954168
 Cd        -1.7753257667       -0.3121054857        6.8316599018
 Cd        -6.3661028473       -1.4630135273       -3.4383357626
 Cd        -4.3602814436       -3.1214810613       -0.1759283953
 Cd        -2.2424276819       -3.6242998489        3.6335413818
 Cd         0.1757294635       -3.9625201566        7.0364714760
 Cd        -4.2692200317       -5.9860442556       -3.0005266361
 Cd        -2.2482225396       -6.7972628816        0.6786391664
 Cd         0.0669003827       -7.3030327295        3.8545421700
 Cd        -4.0792754193        7.4105475565        2.4175118797
 Cd        -1.6116442377        6.4880648240        6.2478272306
 Cd        -4.3308002626        4.8127262164       -0.6762739309
 Cd        -1.8326132452        3.6694977750        3.1598212265
 Cd         0.4939817277        3.1637060931        6.7202662426
 Cd        -4.5980154021        1.9988297698       -4.0880170010
 Cd        -2.1651194586        1.0165564496       -0.4536921834
 Cd         0.1376109507       -0.0659106884        3.1336818174
 Cd         2.6419074521       -0.6636939286        6.8958319365
 Cd        -4.1515129292       -0.5348426091       -6.9620217917
 Cd        -2.2012490343       -1.8491984656       -3.4894107829
 Cd         0.0359311218       -2.8494155653       -0.0264680683
 Cd         2.4407298775       -3.8224684908        3.5289587884
 Cd         4.5907434619       -4.2169180472        6.5928471603
 Cd        -2.6321953796       -4.5685798778       -6.0773989300
 Cd        -0.3638438279       -6.1221236347       -3.0620735359
 Cd         1.9882729153       -6.8506852632       -0.0376753302
 Cd         4.3604701588       -7.5063202656        3.0981086138
 Cd        -2.4313710890        8.2839908015       -1.2010761441
 Cd         0.1210964618        6.7915494583        2.0748938605
 Cd         2.2602783261        6.3879934074        5.9824457591
 Cd        -2.2743307721        5.5403016700       -4.1096429978
 Cd         0.1552258413        4.6164378819       -0.9814446932
 Cd         2.6173372932        3.7540356816        2.4616712460
 Cd         4.3934694910        2.5024270436        5.6448470259
 Cd        -2.3839877703        3.0961459608       -7.5397423510
 Cd        -0.1308699873        1.7716472388       -4.3458913396
 Cd         2.1522040622        0.8595996928       -0.9600505658
 Cd         4.3027041934       -0.4425155449        2.5248589789
 Cd         6.4943132815       -0.6514444341        6.0110723312
 Cd         0.4032906214       -0.5920449882       -7.0625722312
 Cd         2.1504065746       -1.8410095193       -3.9631978812
 Cd         4.1282053355       -2.9764966895       -0.5499119195
 Cd         6.9189885741       -3.8001688729        2.8840486736
 Cd         1.0693858855       -4.7693596381       -6.7909688629
 Cd         3.6529341800       -5.7620820022       -3.6150795142
 Cd         5.7341856059       -6.5625995016       -0.3323817960
 Cd         2.4532379782        8.1225833618       -1.1556872380
 Cd         4.4025673150        7.2904811152        1.7928276254
 Cd         2.3800547108        5.2453457502       -4.8107637235
 Cd         4.8184663347        4.7191125514       -1.4277792117
 Cd         6.7589411702        3.8390778732        2.0295448973
 Cd         2.6210634084        2.7844913241       -7.7035228004
 Cd         4.8495943395        1.7843685348       -4.5225056138
 Cd         6.7261500983        1.0662237140       -0.9642295531
 Cd         8.8881450478        0.4141445330        2.4369093904
 Cd         4.3615782352       -0.9213178924       -7.7328888960
 Cd         6.7438649008       -1.9767569930       -4.2031112584
 Cd         8.5272445020       -2.6218905711       -0.2551455218
 Se        -9.0557725106        0.2424574140        0.9180313808
 Se        -6.3745872764       -0.6570220647        4.4225742627
 Se        -3.9358548519       -1.3506397678        8.2925868769
 Se        -6.5830028390       -3.7408669090        1.3890860046
 Se        -4.5802302415       -4.2716541219        4.8585926421
 Se        -4.6110671623       -7.7792240778        1.5343213278
 Se        -6.6407812351        3.9866809498        0.4586064126
 Se        -4.0705866514        2.6241591830        3.9150270775
 Se        -1.6315747320        2.0143859544        7.9219454430
 Se        -6.7106235468        0.9827493806       -3.1628202938
 Se        -4.4077684895       -0.2106461950        0.3970531668
 Se        -2.0534879979       -1.1190641497        4.2604482105
 Se         0.4069246601       -1.5676855049        8.0617057342
 Se        -4.4126107232       -3.1307459794       -2.8028288282
 Se        -2.2371864822       -4.0884616040        0.9473336128
 Se         0.1541797359       -4.8148952714        4.4843326207
 Se        -2.4147106009       -7.4199706225       -2.0529393442
 Se        -0.0662571417       -7.8800811154        1.3078284855
 Se        -4.5519687636        7.5920037884       -0.0122560791
 Se        -1.8482840651        6.3647212661        3.5390459072
 Se         0.4006735392        5.8241498358        7.5878867146
 Se        -4.4655945585        4.5529209660       -3.3484418515
 Se        -2.0798083538        3.7153034916        0.3451575142
 Se         0.4973892782        2.6967113851        3.7286137790
 Se         2.7724753484        1.9958260876        7.6298945277
 Se        -4.6126224962        2.0736182894       -6.9031574659
 Se        -2.2770211290        0.8531533747       -3.1284312065
 Se         0.0138865169       -0.1636477002        0.3858468104
 Se         2.3115473387       -1.3198431962        4.0017354986
 Se         4.8624545925       -1.8855864388        7.7371297607
 Se        -2.0700877949       -1.9675257511       -6.4603372509
 Se        -0.0447057629       -3.1582708631       -2.8090856920
 Se         2.2343306950       -4.2299664240        0.7817840723
 Se         4.8342987615       -4.9516929708        4.0974643468
 Se        -0.7556003326       -6.2829108386       -5.8406699955
 Se         1.9243057511       -7.4784768035       -2.6074198353
 Se         4.2543989663       -8.3809591814        0.7363809319
 Se         0.0386925703        7.3677075300       -0.4939635450
 Se         2.3791568525        6.5289221229        3.1400383851
 Se         0.0465974103        4.4270318221       -3.5936563407
 Se         2.5167269427        3.6273521599       -0.0581806204
 Se         4.7705604635        2.4670139639        3.1233546104
 Se         0.0435933033        1.9323944164       -6.9695738842
 Se         2.2733127965        0.7623703678       -3.6584263160
 Se         4.3816175435       -0.2841549253       -0.0177063702
 Se         6.9670500347       -1.1290204494        3.5565582379
 Se         2.2410869402       -2.2702007814       -6.6798205275
 Se         4.3723294721       -3.1971869108       -3.2130677403
 Se         6.4331938555       -4.1098532443        0.4136420186
 Se         4.8503033307        7.5509093293       -0.7463548497
 Se         4.8776288797        4.5477652435       -4.0091414448
 Se         7.0830986217        3.5950723552       -0.6434567968
 Se         4.7810064642        1.5273410534       -7.5566303287
 Se         6.9188050062        0.6130038217       -3.7081238627
 Se         9.1066871843       -0.0609359671       -0.0919647969
  C         6.9955771113       -6.9586634775       -2.8583426301
  H         7.7780160969       -7.1271873265       -3.6573399650
  O         5.8389952916       -6.4652991204       -3.1445809228
  O         7.2920676004       -7.2683568805       -1.6893132711
  C         3.3939431960       -6.2668607509       -6.9513074648
  H         4.3245440932       -6.8689211647       -7.0591687882
  O         3.0202466073       -5.7860511295       -5.7843136273
  O         2.6220129789       -6.1746538788       -7.9242101403
  C         6.3116555909       -2.9071154185       -7.4921130606
  H         7.0978863851       -3.7212906458       -7.4285512081
  O         6.0096715894       -2.3219711192       -6.3505932827
  O         5.9403243477       -2.4750431756       -8.6116316973
  C         8.9837561036       -3.3697375837       -3.4349055328
  H         9.9249943929       -3.8864043165       -3.1840078659
  O         8.5659407989       -3.4209184445       -4.6048832464
  O         8.2714489672       -2.6971151254       -2.5207012617
  C         9.7902109758       -4.6282247391        2.1768529346
  H        10.6284324694       -5.3337138149        2.3552924638
  O         9.7484501532       -4.1824896055        0.9942458601
  O         9.0219926648       -4.5705851174        3.1873629795
  C        -2.8252708508       -8.8894178348        5.3653894160
  H        -2.3915771747       -9.8892286280        5.4446685031
  O        -1.9808601030       -7.9304545651        5.0436955975
  O        -4.0908415257       -8.7280019527        5.4030844137
  C         3.0047406823       -8.6887063298        5.2919739424
  H         2.6853413808       -9.0312323512        6.2714246943
  O         1.9985977812       -8.3553887881        4.5599054594
  O         4.2197147413       -8.6069092298        4.9235206312
  C         2.8732291572       -5.7090624943        8.2322507888
  H         2.4095730423       -6.3582442170        8.9295273658
  O         2.2236878889       -4.8031284854        7.6183804854
  O         4.1525405945       -5.8988692439        8.1468427445
  C        -2.5324052264       -5.9090323801        8.5168983878
  H        -2.0058427467       -6.7599986745        9.0204193621
  O        -1.9189018681       -5.2527647032        7.5983339134
  O        -3.6521974131       -5.4981014961        8.8936623702
  C        -6.8661340661        2.3082426882        7.3884767521
  H        -7.2433530482        3.2983326111        7.3747512577
  O        -5.6189307919        2.1553364867        7.5292857639
  O        -7.6694328727        1.3672322100        7.2032576312
  C        -4.1128935570        6.2776012356        7.2258109093
  H        -5.2184092536        6.2949225170        7.4003980339
  O        -3.5215502414        5.2331222329        6.7794929280
  O        -3.5956064510        7.4679880815        7.3184340370
  C        -6.2584500423        7.1467273309        4.0778865765
  H        -7.2018864753        7.1620259062        4.6862261037
  O        -5.8042352338        6.0508881806        3.6277903665
  O        -5.6141473350        8.2227071687        3.8530055117
  C        -9.2670155991        2.9624473135        4.4549609073
  H        -9.7760873251        3.8307467380        4.7753730710
  O        -8.0580447847        3.0137717908        4.1153681461
  O       -10.0869615960        1.9755230626        4.3964141791
  C        -9.5997958208       -3.5202239981        4.2555074891
  H       -10.6284324694       -3.6062117458        4.7363993397
  O        -9.3836198173       -2.7271085544        3.2939504316
  O        -8.6749593009       -4.3055307223        4.7674147240
  C        -5.4063829718       -6.0836320759       -6.1576393485
  H        -6.0390997038       -6.5934387315       -6.8768176703
  O        -5.3157147411       -6.5042627408       -4.9638375967
  O        -4.7997118332       -5.0931497246       -6.6842330004
  C        -7.4812021438       -7.2683192216       -1.8337008205
  H        -7.8430239833       -7.7214409635       -2.7403108931
  O        -6.3847231004       -6.5596142310       -1.8855223803
  O        -8.0870004405       -7.4369608581       -0.7449951352
  C        -9.2637717352       -3.4248031045       -2.1287629167
  H        -9.5435102925       -4.0726156799       -2.9624854104
  O        -8.1685743898       -2.7562864935       -2.2769679175
  O        -9.8293124780       -3.4993302663       -1.0042472880
  C        -6.7198117275       -1.5155721631       -7.0057360974
  H        -7.7266400310       -1.9701098143       -7.1795729881
  O        -6.3208037730       -1.2812141421       -5.7891801227
  O        -6.0546670581       -1.2647410752       -8.0219575549
  C        -1.9610306020        5.6962737072       -7.4797868569
  H        -1.8068881661        6.7616764611       -7.4798700689
  O        -2.4613788677        5.1953402046       -6.4147373301
  O        -1.7592038190        5.0404242691       -8.5376948407
  C        -1.7153677193        9.0065729983       -3.7807068554
  H        -1.3518565997        9.2891789052       -4.8285272378
  O        -1.7735635219        7.7204009534       -3.5311974415
  O        -1.9589811591        9.8892286280       -2.9296575010
  C         2.5176986766        8.6527359013       -4.1276241396
  H         2.7356319561        9.0838176512       -5.0545617483
  O         2.0941304229        7.4607563111       -4.0382054964
  O         2.6632020791        9.4136986823       -3.1567247192
  C         1.7405814703        5.3615037054       -8.2026998584
  H         1.4592813282        6.4433815072       -8.3446733349
  O         2.2712544771        5.0744229803       -7.0359036782
  O         1.5374971892        4.4786315137       -9.0204193621
  C         9.4791869119        2.6134878200        3.9079418032
  H         9.6264681644        3.4611325178        4.5867541287
  O         8.5294682966        2.7206869475        3.0468687327
  O        10.1884170796        1.5361363159        4.0354546634
  C         6.6320899766        7.0427804887        3.3240585285
  H         7.5183451153        7.1103565644        4.0025867163
  O         6.4921259472        6.1579139584        2.4473334656
  O         5.8014508194        7.8970951585        3.5804466065
  C         4.7468288793        5.8510846562        6.9391041765
  H         5.6837062732        5.7110173508        7.4566454645
  O         4.3315486404        4.9881730889        6.0840680113
  O         4.1390624477        6.9214380767        7.1338855679
  C         7.5642974957        1.7429307679        7.1823006621
  H         8.1116275708        2.6102062210        7.6466333920
  O         6.7423080014        2.0330978891        6.2208765696
  O         7.8434776238        0.5800715711        7.5931108165
     227
 i =        1, time =        1.000, E =       -16.7386990448
 Cd        -8.6193455606        0.4796523602        3.4771679310
 Cd        -5.8715343417       -0.2571837506        7.1144010133
 Cd        -8.4082294524       -2.1541379588        0.3852312483
 Cd        -6.8927366577       -3.2918088292        3.9610943296
 Cd        -3.6901778006       -3.7003962083        7.3823922157
 Cd        -6.4419803047       -6.2357654925        0.4642655996
 Cd        -4.3123513085       -6.8296325632        3.9052207502
 Cd        -6.1163887760        3.8609340224        2.9055651043
 Cd        -3.6066271491        2.8812327298        6.5904173949
 Cd        -6.7534351465        1.1872401395       -0.3192259011
 Cd        -4.0444270153        0.0755191205        3.0501885159
 Cd        -1.7741848129       -0.3125737899        6.8335960610
 Cd        -6.3661028557       -1.4624307953       -3.4401784583
 Cd        -4.3613524046       -3.1217852185       -0.1745523720
 Cd        -2.2426140444       -3.6215680873        3.6336134540
 Cd         0.1787106248       -3.9615930447        7.0369437383
 Cd        -4.2693807045       -5.9882399609       -2.9988679261
 Cd        -2.2487037004       -6.7966352795        0.6791623969
 Cd         0.0677898792       -7.3029984675        3.8542326409
 Cd        -4.0803086770        7.4119324220        2.4182699342
 Cd        -1.6107936378        6.4879267902        6.2509754765
 Cd        -4.3325433495        4.8128104614       -0.6769571443
 Cd        -1.8304015825        3.6695979557        3.1589430611
 Cd         0.4898059253        3.1633371330        6.7205479431
 Cd        -4.5996430322        2.0001176165       -4.0890114305
 Cd        -2.1629002833        1.0181269102       -0.4517587059
 Cd         0.1384324399       -0.0681711444        3.1344201074
 Cd         2.6424414914       -0.6635609644        6.8959199379
 Cd        -4.1540963670       -0.5351529136       -6.9611321142
 Cd        -2.2031834246       -1.8491024031       -3.4900290869
 Cd         0.0358070774       -2.8474957638       -0.0250998243
 Cd         2.4397113490       -3.8215569924        3.5304675974
 Cd         4.5938326419       -4.2152033788        6.5946912851
 Cd        -2.6316994663       -4.5699851428       -6.0785513363
 Cd        -0.3609669575       -6.1210783391       -3.0631374446
 Cd         1.9864039288       -6.8523594025       -0.0374635457
 Cd         4.3578645332       -7.5050564823        3.0974083832
 Cd        -2.4320534460        8.2867309295       -1.2003711107
 Cd         0.1211453722        6.7911470698        2.0747915423
 Cd         2.2581152523        6.3879360089        5.9826585768
 Cd        -2.2740400431        5.5405508571       -4.1121328599
 Cd         0.1544575981        4.6148710927       -0.9823488980
 Cd         2.6165263285        3.7533526519        2.4610280721
 Cd         4.3939328371        2.5015387499        5.6447028768
 Cd        -2.3864797180        3.0937337593       -7.5398922437
 Cd        -0.1312633569        1.7709325938       -4.3474231703
 Cd         2.1531826130        0.8600255708       -0.9632073345
 Cd         4.3034777132       -0.4402532077        2.5248093675
 Cd         6.4920368300       -0.6517722172        6.0104990105
 Cd         0.4042592531       -0.5927816799       -7.0621331740
 Cd         2.1513226854       -1.8411024814       -3.9633384414
 Cd         4.1299880829       -2.9780241457       -0.5482363354
 Cd         6.9198268748       -3.7969788063        2.8855291464
 Cd         1.0695737576       -4.7692163170       -6.7906704284
 Cd         3.6506392251       -5.7625245562       -3.6177258057
 Cd         5.7329757620       -6.5640310406       -0.3327874542
 Cd         2.4551218534        8.1223037573       -1.1566358369
 Cd         4.4053666944        7.2897929323        1.7948364308
 Cd         2.3804079764        5.2452235439       -4.8087260885
 Cd         4.8189933474        4.7184606449       -1.4284157222
 Cd         6.7582424208        3.8401537842        2.0311451930
 Cd         2.6217956530        2.7829223369       -7.7033810899
 Cd         4.8493557417        1.7846737139       -4.5231313545
 Cd         6.7277329191        1.0650187056       -0.9631187330
 Cd         8.8867455938        0.4155871311        2.4347972504
 Cd         4.3618203018       -0.9226261032       -7.7309177249
 Cd         6.7427858939       -1.9756245326       -4.2012713137
 Cd         8.5291342852       -2.6208078613       -0.2528017095
 Se        -9.0547448490        0.2428635741        0.9183236866
 Se        -6.3727517105       -0.6565005414        4.4183027772
 Se        -3.9345392469       -1.3489577479        8.2964946802
 Se        -6.5831096139       -3.7425340680        1.3880712614
 Se        -4.5790593324       -4.2748458485        4.8597262835
 Se        -4.6122281451       -7.7765435277        1.5328504061
 Se        -6.6422338772        3.9855455582        0.4577087806
 Se        -4.0719377468        2.6208439591        3.9142841521
 Se        -1.6333244326        2.0117393205        7.9250711272
 Se        -6.7116458617        0.9828825932       -3.1654483993
 Se        -4.4070555583       -0.2111856372        0.3949040929
 Se        -2.0531268905       -1.1153443822        4.2593727890
 Se         0.4060001839       -1.5661691091        8.0650379169
 Se        -4.4160517006       -3.1299768961       -2.8046571610
 Se        -2.2374422333       -4.0915788328        0.9472055330
 Se         0.1530596290       -4.8127443786        4.4857909046
 Se        -2.4165675443       -7.4205691251       -2.0539548428
 Se        -0.0669579861       -7.8790968425        1.3095530975
 Se        -4.5520856065        7.5948308094       -0.0125893930
 Se        -1.8467360670        6.3632962960        3.5400593746
 Se         0.4036994086        5.8261639193        7.5858283434
 Se        -4.4660003014        4.5539515364       -3.3489419959
 Se        -2.0809696443        3.7152456844        0.3431683284
 Se         0.4982137532        2.6970078090        3.7286697704
 Se         2.7717868154        1.9958583033        7.6261598463
 Se        -4.6131390955        2.0747470122       -6.9049009237
 Se        -2.2788733998        0.8535062340       -3.1261003337
 Se         0.0145549520       -0.1632257480        0.3853973298
 Se         2.3129763737       -1.3189206083        3.9989936812
 Se         4.8631477051       -1.8843080263        7.7353608169
 Se        -2.0702121685       -1.9664108614       -6.4603663700
 Se        -0.0447303119       -3.1599115518       -2.8087845994
 Se         2.2323221829       -4.2314396073        0.7809309008
 Se         4.8362310681       -4.9530760368        4.0967210887
 Se        -0.7551512002       -6.2847737924       -5.8413900963
 Se         1.9250052380       -7.4789948632       -2.6076093994
 Se         4.2593692833       -8.3791431588        0.7364206620
 Se         0.0356549261        7.3686016530       -0.4912970133
 Se         2.3808986693        6.5252144512        3.1424538470
 Se         0.0437183086        4.4288073921       -3.5939884425
 Se         2.5163682941        3.6274441968       -0.0568314974
 Se         4.7726806099        2.4661850941        3.1253324319
 Se         0.0455195018        1.9299222600       -6.9704829757
 Se         2.2758041669        0.7648233510       -3.6570494375
 Se         4.3766319718       -0.2853732728       -0.0177893570
 Se         6.9676967128       -1.1294464890        3.5582478884
 Se         2.2369599055       -2.2681482936       -6.6837618035
 Se         4.3736996684       -3.1974797774       -3.2156358427
 Se         6.4331271247       -4.1116793806        0.4129919896
 Se         4.8515001231        7.5524074008       -0.7458867723
 Se         4.8774457759        4.5489656157       -4.0122131576
 Se         7.0855545830        3.5934445763       -0.6428731618
 Se         4.7816510271        1.5264095975       -7.5555412635
 Se         6.9185149469        0.6112208743       -3.7073544359
 Se         9.1068448507       -0.0627130955       -0.0922999440
  C         6.9966713118       -6.9498015610       -2.8612713344
  H         7.7649322095       -7.1224747738       -3.6684216540
  O         5.8439291444       -6.4672125808       -3.1400493755
  O         7.2884517554       -7.2740827610       -1.6935524025
  C         3.3950829231       -6.2672851430       -6.9491601843
  H         4.3444066225       -6.8936096686       -7.0753272229
  O         3.0187984413       -5.7908291714       -5.7819356823
  O         2.6176531356       -6.1688349785       -7.9239348080
  C         6.3106272008       -2.9078635624       -7.4910123640
  H         7.1299137504       -3.7048862282       -7.4466889051
  O         6.0085243444       -2.3181407044       -6.3474086700
  O         5.9392833748       -2.4741773451       -8.6124178323
  C         8.9774174217       -3.3708885023       -3.4296336741
  H         9.9250180562       -3.8774829974       -3.1826003730
  O         8.5681874570       -3.4148150721       -4.6045826490
  O         8.2716682807       -2.6966941527       -2.5200234515
  C         9.7980454069       -4.6251894286        2.1809864927
  H        10.6408655401       -5.3318691344        2.3887999993
  O         9.7470603201       -4.1804298729        0.9925782650
  O         9.0284829979       -4.5680762098        3.1870276821
  C        -2.8217194713       -8.8884076490        5.3598599325
  H        -2.4154187803       -9.9024293192        5.4343946394
  O        -1.9847301124       -7.9305969034        5.0422774773
  O        -4.0904539402       -8.7273447065        5.4043619473
  C         2.9969137984       -8.6915903771        5.2874316117
  H         2.6967725338       -9.0398269484        6.2934215078
  O         1.9993116068       -8.3577981184        4.5593878275
  O         4.2233623445       -8.6005240477        4.9154105574
  C         2.8792881147       -5.7053290860        8.2324029853
  H         2.3955873073       -6.3773024893        8.9303283437
  O         2.2189599043       -4.8088001936        7.6162708356
  O         4.1498366725       -5.9034071844        8.1535063590
  C        -2.5347057480       -5.9173515233        8.5219697688
  H        -2.0052498086       -6.7390725628        9.0096019785
  O        -1.9214203460       -5.2582411199        7.5983126978
  O        -3.6522377384       -5.5083325232        8.8926793407
  C        -6.8630616815        2.3027109389        7.3891646955
  H        -7.2086193538        3.3071349018        7.3885257928
  O        -5.6212515534        2.1590663981        7.5336377399
  O        -7.6694660714        1.3702096270        7.1999452020
  C        -4.1170064496        6.2827853818        7.2281624974
  H        -5.2418933127        6.2896177269        7.3832000201
  O        -3.5266107006        5.2290103636        6.7737897991
  O        -3.5910044622        7.4672824828        7.3179897645
  C        -6.2567287780        7.1462177206        4.0781033894
  H        -7.2111390447        7.1649409639        4.6689854642
  O        -5.8089924105        6.0478327588        3.6278380319
  O        -5.6126699813        8.2206577877        3.8486625732
  C        -9.2741884806        2.9617389934        4.4604869286
  H        -9.7855372140        3.8838940690        4.7760086716
  O        -8.0587693242        3.0118777331        4.1192432583
  O       -10.0810173083        1.9791966186        4.3921673822
  C        -9.6032580358       -3.5282079579        4.2551541246
  H       -10.5971720209       -3.6001750875        4.7566807035
  O        -9.3832039562       -2.7227704889        3.2942816028
  O        -8.6785235208       -4.3016300823        4.7629485155
  C        -5.4081386935       -6.0792130388       -6.1561722384
  H        -6.0546960796       -6.5859836395       -6.8890942905
  O        -5.3109671678       -6.5040281009       -4.9651320113
  O        -4.7983198907       -5.0927122011       -6.6852579579
  C        -7.4874802660       -7.2705397645       -1.8347998140
  H        -7.8388434959       -7.7173330376       -2.7530342297
  O        -6.3886957798       -6.5549325777       -1.8842429480
  O        -8.0716127787       -7.4408439721       -0.7457770938
  C        -9.2562476993       -3.4270096298       -2.1219660744
  H        -9.5270787848       -4.0663584857       -2.9594189931
  O        -8.1697773924       -2.7553694259       -2.2726732424
  O        -9.8241495576       -3.4939227041       -1.0091667755
  C        -6.7206977259       -1.5101642301       -7.0045787789
  H        -7.7450574417       -1.9674181007       -7.1698505571
  O        -6.3197412106       -1.2781451720       -5.7989867342
  O        -6.0632210535       -1.2634634122       -8.0154609002
  C        -1.9628864046        5.6954852818       -7.4852972588
  H        -1.7770888886        6.7764005651       -7.4923242406
  O        -2.4611383891        5.1866636690       -6.4086902728
  O        -1.7564269574        5.0403289970       -8.5282863454
  C        -1.7168724403        9.0074861813       -3.7839162285
  H        -1.3493405476        9.2660238074       -4.8465614694
  O        -1.7701062123        7.7194265483       -3.5245883825
  O        -1.9637672211        9.8894983406       -2.9407647622
  C         2.5062221940        8.6538677953       -4.1272910042
  H         2.7131102182        9.0638249498       -5.0476060874
  O         2.0944655261        7.4531852472       -4.0307108337
  O         2.6627203915        9.4111200786       -3.1551703310
  C         1.7411344837        5.3672401854       -8.1968481445
  H         1.4358383610        6.4416008070       -8.3632925476
  O         2.2781559673        5.0765280347       -7.0406536046
  O         1.5313017180        4.4832944050       -9.0175115951
  C         9.4768499610        2.6096237977        3.9000085703
  H         9.6131090334        3.4671477718        4.5843902861
  O         8.5279556875        2.7173229513        3.0491485370
  O        10.1884768541        1.5401039888        4.0330279514
  C         6.6326481436        7.0382802344        3.3282135465
  H         7.5082674956        7.1289998248        4.0070788575
  O         6.4944106821        6.1603665810        2.4465552754
  O         5.7954220846        7.9029654289        3.5812176990
  C         4.7447742113        5.8524720553        6.9353744724
  H         5.7085862008        5.7040540943        7.4370666698
  O         4.3285263198        4.9885271883        6.0814839155
  O         4.1455937132        6.9223791845        7.1370933939
  C         7.5603320009        1.7452821489        7.1878557978
  H         8.1158840311        2.6116602203        7.6593692779
  O         6.7458043435        2.0301936865        6.2244309453
  O         7.8434611345        0.5821130739        7.5894406740
     227
 i =        2, time =        2.000, E =       -16.7540830221
 Cd        -8.6170095919        0.4783578123        3.4767593460
 Cd        -5.8707587548       -0.2576100283        7.1136678550
 Cd        -8.4089211195       -2.1551880550        0.3836600760
 Cd        -6.8897194987       -3.2939353108        3.9621375044