     227
 i =        0, time =        0.000, E =        -8.0223956947
 Cd        -8.6216924880        0.4810107428        3.4775887729
 Cd        -5.8723589632       -0.2566559957        7.1151373767
 Cd        -8.4076147924       -2.1531404527        0.3867588804
 Cd        -6.8957642261       -3.2896665849        3.9600318291
 Cd        -3.6930098048       -3.6992689615        7.3819491709
 Cd        -6.4429261463       -6.2347087238        0.4622469067
 Cd        -4.3123952394       -6.8285875372        3.9039095072
 Cd        -6.1141073353        3.8626235599        2.9066844924
 Cd        -3.6048790416        2.8797284733        6.5917986711
 Cd        -6.7531255596        1.1841266196       -0.3182182747
 Cd        -4.0437606329        0.0729837467        3.0511954168
 Cd        -1.7753257667       -0.3121054857        6.8316599018
 Cd        -6.3661028473       -1.4630135273       -3.4383357626
 Cd        -4.3602814436       -3.1214810613       -0.1759283953
 Cd        -2.2424276819       -3.6242998489        3.6335413818
 Cd         0.1757294635       -3.9625201566        7.0364714760
 Cd        -4.2692200317       -5.9860442556       -3.0005266361
 Cd        -2.2482225396       -6.7972628816        0.6786391664
 Cd         0.0669003827       -7.3030327295        3.8545421700
 Cd        -4.0792754193        7.4105475565        2.4175118797
 Cd        -1.6116442377        6.4880648240        6.2478272306
 Cd        -4.3308002626        4.8127262164       -0.6762739309
 Cd        -1.8326132452        3.6694977750        3.1598212265
 Cd         0.4939817277        3.1637060931        6.7202662426
 Cd        -4.5980154021        1.9988297698       -4.0880170010
 Cd        -2.1651194586        1.0165564496       -0.4536921834
 Cd         0.1376109507       -0.0659106884        3.1336818174
 Cd         2.6419074521       -0.6636939286        6.8958319365
 Cd        -4.1515129292       -0.5348426091       -6.9620217917
 Cd        -2.2012490343       -1.8491984656       -3.4894107829
 Cd         0.0359311218       -2.8494155653       -0.0264680683
 Cd         2.4407298775       -3.8224684908        3.5289587884
 Cd         4.5907434619       -4.2169180472        6.5928471603
 Cd        -2.6321953796       -4.5685798778       -6.0773989300
 Cd        -0.3638438279       -6.1221236347       -3.0620735359
 Cd         1.9882729153       -6.8506852632       -0.0376753302
 Cd         4.3604701588       -7.5063202656        3.0981086138
 Cd        -2.4313710890        8.2839908015       -1.2010761441
 Cd         0.1210964618        6.7915494583        2.0748938605
 Cd         2.2602783261        6.3879934074        5.9824457591
 Cd        -2.2743307721        5.5403016700       -4.1096429978
 Cd         0.1552258413        4.6164378819       -0.9814446932
 Cd         2.6173372932        3.7540356816        2.4616712460
 Cd         4.3934694910        2.5024270436        5.6448470259
 Cd        -2.3839877703        3.0961459608       -7.5397423510
 Cd        -0.1308699873        1.7716472388       -4.3458913396
 Cd         2.1522040622        0.8595996928       -0.9600505658
 Cd         4.3027041934       -0.4425155449        2.5248589789
 Cd         6.4943132815       -0.6514444341        6.0110723312
 Cd         0.4032906214       -0.5920449882       -7.0625722312
 Cd         2.1504065746       -1.8410095193       -3.9631978812
 Cd         4.1282053355       -2.9764966895       -0.5499119195
 Cd         6.9189885741       -3.8001688729        2.8840486736
 Cd         1.0693858855       -4.7693596381       -6.7909688629
 Cd         3.6529341800       -5.7620820022       -3.6150795142
 Cd         5.7341856059       -6.5625995016       -0.3323817960
 Cd         2.4532379782        8.1225833618       -1.1556872380
 Cd         4.4025673150        7.2904811152        1.7928276254
 Cd         2.3800547108        5.2453457502       -4.8107637235
 Cd         4.8184663347        4.7191125514       -1.4277792117
 Cd         6.7589411702        3.8390778732        2.0295448973
 Cd         2.6210634084        2.7844913241       -7.7035228004
 Cd         4.8495943395        1.7843685348       -4.5225056138
 Cd         6.7261500983        1.0662237140       -0.9642295531
 Cd         8.8881450478        0.4141445330        2.4369093904
 Cd         4.3615782352       -0.9213178924       -7.7328888960
 Cd         6.7438649008       -1.9767569930       -4.2031112584
 Cd         8.5272445020       -2.6218905711       -0.2551455218
 Se        -9.0557725106        0.2424574140        0.9180313808
 Se        -6.3745872764       -0.6570220647        4.4225742627
 Se        -3.9358548519       -1.3506397678        8.2925868769
 Se        -6.5830028390       -3.7408669090        1.3890860046
 Se        -4.5802302415       -4.2716541219        4.8585926421
 Se        -4.6110671623       -7.7792240778        1.5343213278
 Se        -6.6407812351        3.9866809498        0.4586064126
 Se        -4.0705866514        2.6241591830        3.9150270775
 Se        -1.6315747320        2.0143859544        7.9219454430
 Se        -6.7106235468        0.9827493806       -3.1628202938
 Se        -4.4077684895       -0.2106461950        0.3970531668
 Se        -2.0534879979       -1.1190641497        4.2604482105
 Se         0.4069246601       -1.5676855049        8.0617057342
 Se        -4.4126107232       -3.1307459794       -2.8028288282
 Se        -2.2371864822       -4.0884616040        0.9473336128
 Se         0.1541797359       -4.8148952714        4.4843326207
 Se        -2.4147106009       -7.4199706225       -2.0529393442
 Se        -0.0662571417       -7.8800811154        1.3078284855
 Se        -4.5519687636        7.5920037884       -0.0122560791
 Se        -1.8482840651        6.3647212661        3.5390459072
 Se         0.4006735392        5.8241498358        7.5878867146
 Se        -4.4655945585        4.5529209660       -3.3484418515
 Se        -2.0798083538        3.7153034916        0.3451575142
 Se         0.4973892782        2.6967113851        3.7286137790
 Se         2.7724753484        1.9958260876        7.6298945277
 Se        -4.6126224962        2.0736182894       -6.9031574659
 Se        -2.2770211290        0.8531533747       -3.1284312065
 Se         0.0138865169       -0.1636477002        0.3858468104
 Se         2.3115473387       -1.3198431962        4.0017354986
 Se         4.8624545925       -1.8855864388        7.7371297607
 Se        -2.0700877949       -1.9675257511       -6.4603372509
 Se        -0.0447057629       -3.1582708631       -2.8090856920
 Se         2.2343306950       -4.2299664240        0.7817840723
 Se         4.8342987615       -4.9516929708        4.0974643468
 Se        -0.7556003326       -6.2829108386       -5.8406699955
 Se         1.9243057511       -7.4784768035       -2.6074198353
 Se         4.2543989663       -8.3809591814        0.7363809319
 Se         0.0386925703        7.3677075300       -0.4939635450
 Se         2.3791568525        6.5289221229        3.1400383851
 Se         0.0465974103        4.4270318221       -3.5936563407
 Se         2.5167269427        3.6273521599       -0.0581806204
 Se         4.7705604635        2.4670139639        3.1233546104
 Se         0.0435933033        1.9323944164       -6.9695738842
 Se         2.2733127965        0.7623703678       -3.6584263160
 Se         4.3816175435       -0.2841549253       -0.0177063702
 Se         6.9670500347       -1.1290204494        3.5565582379
 Se         2.2410869402       -2.2702007814       -6.6798205275
 Se         4.3723294721       -3.1971869108       -3.2130677403
 Se         6.4331938555       -4.1098532443        0.4136420186
 Se         4.8503033307        7.5509093293       -0.7463548497
 Se         4.8776288797        4.5477652435       -4.0091414448
 Se         7.0830986217        3.5950723552       -0.6434567968
 Se         4.7810064642        1.5273410534       -7.5566303287
 Se         6.9188050062        0.6130038217       -3.7081238627
 Se         9.1066871843       -0.0609359671       -0.0919647969
  C         6.9955771113       -6.9586634775       -2.8583426301
  H         7.7780160969       -7.1271873265       -3.6573399650
  O         5.8389952916       -6.4652991204       -3.1445809228
  O         7.2920676004       -7.2683568805       -1.6893132711
  C         3.3939431960       -6.2668607509       -6.9513074648
  H         4.3245440932       -6.8689211647       -7.0591687882
  O         3.0202466073       -5.7860511295       -5.7843136273
  O         2.6220129789       -6.1746538788       -7.9242101403
  C         6.3116555909       -2.9071154185       -7.4921130606
  H         7.0978863851       -3.7212906458       -7.4285512081
  O         6.0096715894       -2.3219711192       -6.3505932827
  O         5.9403243477       -2.4750431756       -8.6116316973
  C         8.9837561036       -3.3697375837       -3.4349055328
  H         9.9249943929       -3.8864043165       -3.1840078659
  O         8.5659407989       -3.4209184445       -4.6048832464
  O         8.2714489672       -2.6971151254       -2.5207012617
  C         9.7902109758       -4.6282247391        2.1768529346
  H        10.6284324694       -5.3337138149        2.3552924638
  O         9.7484501532       -4.1824896055        0.9942458601
  O         9.0219926648       -4.5705851174        3.1873629795
  C        -2.8252708508       -8.8894178348        5.3653894160
  H        -2.3915771747       -9.8892286280        5.4446685031
  O        -1.9808601030       -7.9304545651        5.0436955975
  O        -4.0908415257       -8.7280019527        5.4030844137
  C         3.0047406823       -8.6887063298        5.2919739424
  H         2.6853413808       -9.0312323512        6.2714246943
  O         1.9985977812       -8.3553887881        4.5599054594
  O         4.2197147413       -8.6069092298        4.9235206312
  C         2.8732291572       -5.7090624943        8.2322507888
  H         2.4095730423       -6.3582442170        8.9295273658
  O         2.2236878889       -4.8031284854        7.6183804854
  O         4.1525405945       -5.8988692439        8.1468427445
  C        -2.5324052264       -5.9090323801        8.5168983878
  H        -2.0058427467       -6.7599986745        9.0204193621
  O        -1.9189018681       -5.2527647032        7.5983339134
  O        -3.6521974131       -5.4981014961        8.8936623702
  C        -6.8661340661        2.3082426882        7.3884767521
  H        -7.2433530482        3.2983326111        7.3747512577
  O        -5.6189307919        2.1553364867        7.5292857639
  O        -7.6694328727        1.3672322100        7.2032576312
  C        -4.1128935570        6.2776012356        7.2258109093
  H        -5.2184092536        6.2949225170        7.4003980339
  O        -3.5215502414        5.2331222329        6.7794929280
  O        -3.5956064510        7.4679880815        7.3184340370
  C        -6.2584500423        7.1467273309        4.0778865765
  H        -7.2018864753        7.1620259062        4.6862261037
  O        -5.8042352338        6.0508881806        3.6277903665
  O        -5.6141473350        8.2227071687        3.8530055117
  C        -9.2670155991        2.9624473135        4.4549609073
  H        -9.7760873251        3.8307467380        4.7753730710
  O        -8.0580447847        3.0137717908        4.1153681461
  O       -10.0869615960        1.9755230626        4.3964141791
  C        -9.5997958208       -3.5202239981        4.2555074891
  H       -10.6284324694       -3.6062117458        4.7363993397
  O        -9.3836198173       -2.7271085544        3.2939504316
  O        -8.6749593009       -4.3055307223        4.7674147240
  C        -5.4063829718       -6.0836320759       -6.1576393485
  H        -6.0390997038       -6.5934387315       -6.8768176703
  O        -5.3157147411       -6.5042627408       -4.9638375967
  O        -4.7997118332       -5.0931497246       -6.6842330004
  C        -7.4812021438       -7.2683192216       -1.8337008205
  H        -7.8430239833       -7.7214409635       -2.7403108931
  O        -6.3847231004       -6.5596142310       -1.8855223803
  O        -8.0870004405       -7.4369608581       -0.7449951352
  C        -9.2637717352       -3.4248031045       -2.1287629167
  H        -9.5435102925       -4.0726156799       -2.9624854104
  O        -8.1685743898       -2.7562864935       -2.2769679175
  O        -9.8293124780       -3.4993302663       -1.0042472880
  C        -6.7198117275       -1.5155721631       -7.0057360974
  H        -7.7266400310       -1.9701098143       -7.1795729881
  O        -6.3208037730       -1.2812141421       -5.7891801227
  O        -6.0546670581       -1.2647410752       -8.0219575549
  C        -1.9610306020        5.6962737072       -7.4797868569
  H        -1.8068881661        6.7616764611       -7.4798700689
  O        -2.4613788677        5.1953402046       -6.4147373301
  O        -1.7592038190        5.0404242691       -8.5376948407
  C        -1.7153677193        9.0065729983       -3.7807068554
  H        -1.3518565997        9.2891789052       -4.8285272378
  O        -1.7735635219        7.7204009534       -3.5311974415
  O        -1.9589811591        9.8892286280       -2.9296575010
  C         2.5176986766        8.6527359013       -4.1276241396
  H         2.7356319561        9.0838176512       -5.0545617483
  O         2.0941304229        7.4607563111       -4.0382054964
  O         2.6632020791        9.4136986823       -3.1567247192
  C         1.7405814703        5.3615037054       -8.2026998584
  H         1.4592813282        6.4433815072       -8.3446733349
  O         2.2712544771        5.0744229803       -7.0359036782
  O         1.5374971892        4.4786315137       -9.0204193621
  C         9.4791869119        2.6134878200        3.9079418032
  H         9.6264681644        3.4611325178        4.5867541287
  O         8.5294682966        2.7206869475        3.0468687327
  O        10.1884170796        1.5361363159        4.0354546634
  C         6.6320899766        7.0427804887        3.3240585285
  H         7.5183451153        7.1103565644        4.0025867163
  O         6.4921259472        6.1579139584        2.4473334656
  O         5.8014508194        7.8970951585        3.5804466065
  C         4.7468288793        5.8510846562        6.9391041765
  H         5.6837062732        5.7110173508        7.4566454645
  O         4.3315486404        4.9881730889        6.0840680113
  O         4.1390624477        6.9214380767        7.1338855679
  C         7.5642974957        1.7429307679        7.1823006621
  H         8.1116275708        2.6102062210        7.6466333920
  O         6.7423080014        2.0330978891        6.2208765696
  O         7.8434776238        0.5800715711        7.5931108165
     227
 i =        1, time =        1.000, E =        -8.0313936209
 Cd        -8.6193412977        0.4796346974        3.4771688155
 Cd        -5.8715307579       -0.2572056259        7.1143958643
 Cd        -8.4082103723       -2.1541305692        0.3852378444
 Cd        -6.8927293702       -3.2918093948        3.9610977482
 Cd        -3.6901788095       -3.7003809210        7.3823691795
 Cd        -6.4419684605       -6.2357477811        0.4642837499
 Cd        -4.3123533966       -6.8296088995        3.9052122949
 Cd        -6.1163722204        3.8609253845        2.9055573587
 Cd        -3.6066113415        2.8812231864        6.5903940697
 Cd        -6.7534188021        1.1872293552       -0.3192189521
 Cd        -4.0444044753        0.0755169008        3.0501770546
 Cd        -1.7741909835       -0.3125724178        6.8335590285
 Cd        -6.3660824301       -1.4624344555       -3.4401672361
 Cd        -4.3613451299       -3.1217858056       -0.1745568982
 Cd        -2.2426078737       -3.6215683168        3.6336026390
 Cd         0.1786999867       -3.9615867655        7.0369273589
 Cd        -4.2693582933       -5.9882156246       -2.9988607945
 Cd        -2.2487058113       -6.7966117495        0.6791759044
 Cd         0.0677866049       -7.3029832027        3.8542271568
 Cd        -4.0802758261        7.4119353361        2.4182622340
 Cd        -1.6107708235        6.4879318082        6.2509522624
 Cd        -4.3325150404        4.8128043382       -0.6769436977
 Cd        -1.8303876865        3.6695905480        3.1589425275
 Cd         0.4898038473        3.1633494349        6.7205127107
 Cd        -4.5996135412        2.0000986869       -4.0890073856
 Cd        -2.1628828058        1.0181222210       -0.4517485372
 Cd         0.1384263699       -0.0681674922        3.1344038189
 Cd         2.6424463017       -0.6635615304        6.8958817729
 Cd        -4.1540608211       -0.5351505910       -6.9611271502
 Cd        -2.2031727657       -1.8490991163       -3.4900256543
 Cd         0.0358073447       -2.8474716195       -0.0250967758
 Cd         2.4397126537       -3.8215515154        3.5304637098
 Cd         4.5938427671       -4.2151904072        6.5946676064
 Cd        -2.6316847867       -4.5699701696       -6.0785376475
 Cd        -0.3609681774       -6.1210415455       -3.0631256521
 Cd         1.9864089045       -6.8523304258       -0.0374586926
 Cd         4.3578747308       -7.5050351495        3.0973943411
 Cd        -2.4320528934        8.2867274540       -1.2003424283
 Cd         0.1211451391        6.7911381479        2.0747841103
 Cd         2.2580837301        6.3879400071        5.9826282567
 Cd        -2.2740348158        5.5405420915       -4.1121162702
 Cd         0.1544604913        4.6148587272       -0.9823305639
 Cd         2.6165170149        3.7533585010        2.4610327243
 Cd         4.3939116816        2.5015201390        5.6446904945
 Cd        -2.3864706490        3.0936994134       -7.5398967757
 Cd        -0.1312628547        1.7709105399       -4.3474142605
 Cd         2.1531571778        0.8600208758       -0.9631972473
 Cd         4.3034614453       -0.4402626601        2.5248165379
 Cd         6.4920167916       -0.6517874124        6.0104848179
 Cd         0.4042578295       -0.5927788049       -7.0621321533
 Cd         2.1513007909       -1.8410923152       -3.9633262125
 Cd         4.1299633113       -2.9780177075       -0.5482287781
 Cd         6.9198151615       -3.7969752924        2.8855372175
 Cd         1.0695392669       -4.7691854607       -6.7906770502
 Cd         3.6506181551       -5.7625074828       -3.6177077472
 Cd         5.7329516383       -6.5640143299       -0.3327651833
 Cd         2.4551128277        8.1222987582       -1.1565971780
 Cd         4.4053347561        7.2897949132        1.7948210260
 Cd         2.3804033378        5.2451980959       -4.8087163945
 Cd         4.8189683904        4.7184524830       -1.4283962965
 Cd         6.7582237232        3.8401502360        2.0311391884
 Cd         2.6217937528        2.7828938100       -7.7033760632
 Cd         4.8493269067        1.7846674518       -4.5231333536
 Cd         6.7277036811        1.0650091186       -0.9631009838
 Cd         8.8867399158        0.4155699566        2.4347961794
 Cd         4.3617865918       -0.9226137702       -7.7309282520
 Cd         6.7427660744       -1.9756121696       -4.2012670105
 Cd         8.5291287609       -2.6208002964       -0.2527822096
 Se        -9.0548033546        0.2428977596        0.9183104153
 Se        -6.3727674445       -0.6564823045        4.4183105865
 Se        -3.9345285332       -1.3489349605        8.2965563441
 Se        -6.5831256096       -3.7425352102        1.3880791088
 Se        -4.5790861458       -4.2748425779        4.8597378913
 Se        -4.6122364044       -7.7766150958        1.5328325302
 Se        -6.6422908718        3.9855720430        0.4576930917
 Se        -4.0719769520        2.6208481602        3.9143024560
 Se        -1.6333179751        2.0117446003        7.9251608548
 Se        -6.7117017462        0.9829144780       -3.1654662772
 Se        -4.4070786193       -0.2111914534        0.3948873538
 Se        -2.0531377333       -1.1153480917        4.2593939295
 Se         0.4060014510       -1.5661458304        8.0651031307
 Se        -4.4160838887       -3.1299984538       -2.8046758267
 Se        -2.2374435581       -4.0915946700        0.9472071567
 Se         0.1530579327       -4.8127573448        4.4858063354
 Se        -2.4165637620       -7.4206455889       -2.0539481788
 Se        -0.0669538031       -7.8791648693        1.3095368097
 Se        -4.5521610242        7.5948481583       -0.0126093177
 Se        -1.8467727222        6.3633037578        3.5400840809
 Se         0.4037059173        5.8261635548        7.5859088941
 Se        -4.4660580617        4.5539694949       -3.3489555426
 Se        -2.0809911624        3.7152530019        0.3431802227
 Se         0.4982347431        2.6970022777        3.7286866536
 Se         2.7718001691        1.9958742365        7.6262434973
 Se        -4.6132074332        2.0747856869       -6.9049147089
 Se        -2.2788974681        0.8535282336       -3.1261005185
 Se         0.0145559346       -0.1632208296        0.3853982343
 Se         2.3129687162       -1.3189275811        3.9990200656
 Se         4.8631604866       -1.8842992809        7.7354381307
 Se        -2.0702071393       -1.9664197825       -6.4603862866
 Se        -0.0447207224       -3.1599390662       -2.8087926465
 Se         2.2323288632       -4.2314689839        0.7809405631
 Se         4.8362440963       -4.9531016661        4.0967221342
 Se        -0.7551469677       -6.2848505106       -5.8413960949
 Se         1.9250146720       -7.4790743975       -2.6076372817
 Se         4.2593636562       -8.3792125800        0.7363953455
 Se         0.0356410333        7.3686303802       -0.4913443881
 Se         2.3809237895        6.5252184224        3.1424832658
 Se         0.0437230548        4.4288355798       -3.5940061437
 Se         2.5163977401        3.6274391418       -0.0568427260
 Se         4.7727087843        2.4661838098        3.1253271708
 Se         0.0455200216        1.9299843722       -6.9705174359
 Se         2.2758388538        0.7648436965       -3.6570749442
 Se         4.3766629168       -0.2853656322       -0.0178108115
 Se         6.9677257145       -1.1294320683        3.5582388946
 Se         2.2370132047       -2.2681929991       -6.6837737209
 Se         4.3737490600       -3.1974938184       -3.2156701412
 Se         6.4331519401       -4.1116890515        0.4129617198
 Se         4.8515709797        7.5524242138       -0.7459333359
 Se         4.8775000828        4.5489941913       -4.0122448792
 Se         7.0856149930        3.5934691763       -0.6429075461
 Se         4.7817174526        1.5264327525       -7.5555498486
 Se         6.9185799108        0.6112280917       -3.7073766576
 Se         9.1068870318       -0.0626855693       -0.0923422309
  C         6.9966804262       -6.9498513594       -2.8612690269
  H         7.7649322095       -7.1224747738       -3.6684216540
  O         5.8440274695       -6.4672485835       -3.1401051033
  O         7.2885703019       -7.2741623301       -1.6936410962
  C         3.3950607517       -6.2673124032       -6.9491871350
  H         4.3444066225       -6.8936096686       -7.0753272229
  O         3.0188509054       -5.7909173259       -5.7820237430
  O         2.6177319538       -6.1689381215       -7.9240034724
  C         6.3106281645       -2.9078468543       -7.4910683000
  H         7.1299137504       -3.7048862282       -7.4466889051
  O         6.0085587491       -2.3182043764       -6.3474583028
  O         5.9393864756       -2.4742609335       -8.6124855106
  C         8.9774573888       -3.3708784313       -3.4296532577
  H         9.9250180562       -3.8774829974       -3.1826003730
  O         8.5682975758       -3.4148872306       -4.6046311045
  O         8.2717576219       -2.6966988439       -2.5200654181
  C         9.7980831921       -4.6252042560        2.1810014812
  H        10.6408655401       -5.3318691344        2.3887999993
  O         9.7471681222       -4.1805273853        0.9926069705
  O         9.0286350853       -4.5681458796        3.1870540799
  C        -2.8217345383       -8.8884471898        5.3598596727
  H        -2.4154187803       -9.9024293192        5.4343946394
  O        -1.9847451416       -7.9306719351        5.0423470093
  O        -4.0904672614       -8.7274685962        5.4044343942
  C         2.9969242313       -8.6916320832        5.2874251521
  H         2.6967725338       -9.0398269484        6.2934215078
  O         1.9993460325       -8.3578961532        4.5594361818
  O         4.2233702741       -8.6006279914        4.9155442947
  C         2.8793091562       -5.7053263506        8.2324352556
  H         2.3955873073       -6.3773024893        8.9303283437
  O         2.2189966281       -4.8088558888        7.6163821980
  O         4.1498380521       -5.9035011963        8.1536305858
  C        -2.5347154762       -5.9173467695        8.5220178576
  H        -2.0052498086       -6.7390725628        9.0096019785
  O        -1.9214029582       -5.2583764213        7.5983502953
  O        -3.6522440545       -5.5084349550        8.8927920688
  C        -6.8630699044        2.3027044768        7.3892195441
  H        -7.2086193538        3.3071349018        7.3885257928
  O        -5.6213280035        2.1591277301        7.5337281945
  O        -7.6695822272        1.3702877746        7.1999623809
  C        -4.1169934386        6.2828100654        7.2282005672
  H        -5.2418933127        6.2896177269        7.3832000201
  O        -3.5267070592        5.2290572849        6.7738574122
  O        -3.5911086249        7.4673477533        7.3180776909
  C        -6.2567475292        7.1462516062        4.0780892913
  H        -7.2111390447        7.1649409639        4.6689854642
  O        -5.8090723879        6.0478775295        3.6278903465
  O        -5.6128044306        8.2207512428        3.8487489578
  C        -9.2742312180        2.9617630598        4.4604738864
  H        -9.7855372140        3.8838940690        4.7760086716
  O        -8.0588465501        3.0119121798        4.1192887480
  O       -10.0811326178        1.9792938581        4.3922083691
  C        -9.6032872822       -3.5282244950        4.2551715069
  H       -10.5971720209       -3.6001750875        4.7566807035
  O        -9.3833379397       -2.7227983209        3.2942812487
  O        -8.6786487024       -4.3017112194        4.7630028522
  C        -5.4081381067       -6.0792414626       -6.1562025912
  H        -6.0546960796       -6.5859836395       -6.8890942905
  O        -5.3110658292       -6.5041181135       -4.9652302268
  O        -4.7984414954       -5.0927584816       -6.6853277831
  C        -7.4874986456       -7.2705854217       -1.8347920844
  H        -7.8388434959       -7.7173330376       -2.7530342297
  O        -6.3887657062       -6.5550110673       -1.8843220225
  O        -8.0717211990       -7.4409367975       -0.7458501850
  C        -9.2562894922       -3.4269938489       -2.1219794801
  H        -9.5270787848       -4.0663584857       -2.9594189931
  O        -8.1698515406       -2.7554171760       -2.2727201652
  O        -9.8242516351       -3.4939816974       -1.0092250520
  C        -6.7207145591       -1.5101370371       -7.0046088509
  H        -7.7450574417       -1.9674181007       -7.1698505571
  O        -6.3198610097       -1.2781281418       -5.7990640442
  O        -6.0633490769       -1.2634788903       -8.0155438936
  C        -1.9629173785        5.6954923848       -7.4853264264
  H        -1.7770888886        6.7764005651       -7.4923242406
  O        -2.4611923152        5.1867476559       -6.4087405175
  O        -1.7563971897        5.0404666109       -8.5283892245
  C        -1.7169029432        9.0075201160       -3.7839129244
  H        -1.3493405476        9.2660238074       -4.8465614694
  O        -1.7700541503        7.7195145468       -3.5246573597
  O        -1.9637507388        9.8896149218       -2.9408697931
  C         2.5062488153        8.6538972337       -4.1272904152
  H         2.7131102182        9.0638249498       -5.0476060874
  O         2.0944672314        7.4532790297       -4.0307245674
  O         2.6627612497        9.4111907475       -3.1552745160
  C         1.7411704667        5.3672441535       -8.1968763568
  H         1.4358383610        6.4416008070       -8.3632925476
  O         2.2781609976        5.0766359037       -7.0407623130
  O         1.5312329565        4.4833938851       -9.0176159527
  C         9.4769016618        2.6096298055        3.8999943980
  H         9.6131090334        3.4671477718        4.5843902861
  O         8.5280331926        2.7173704050        3.0492014649
  O        10.1885725421        1.5401686130        4.0331239376
  C         6.6326673061        7.0383194321        3.3281968930
  H         7.5082674956        7.1289998248        4.0070788575
  O         6.4945158252        6.1604425899        2.4465713136
  O         5.7955222866        7.9030312071        3.5813199413
  C         4.7447631387        5.8524894489        6.9354127748
  H         5.7085862008        5.7040540943        7.4370666698
  O         4.3286190096        4.9885669068        6.0815440609
  O         4.1457100920        6.9224237120        7.1372028756
  C         7.5603411790        1.7452802491        7.1878995100
  H         8.1158840311        2.6116602203        7.6593692779
  O         6.7458983648        2.0302568976        6.2244766507
  O         7.8435317156        0.5821678359        7.5895586979
     227
 i =        2, time =        2.000, E =        -8.0459230933
 Cd        -8.6169926086        0.4782871624        3.4767629956
 Cd        -5.8707444180       -0.2576975931        7.1136470634
 Cd        -8.4088448701       -2.1551584495        0.3836868445
 Cd        -6.8896939793       -3.2939361304        3.9621554834