     227
 i =        0, time =        0.000, E =       -56.3701981784
 Cd        -8.6216924880        0.4810107428        3.4775887729
 Cd        -5.8723589632       -0.2566559957        7.1151373767
 Cd        -8.4076147924       -2.1531404527        0.3867588804
 Cd        -6.8957642261       -3.2896665849        3.9600318291
 Cd        -3.6930098048       -3.6992689615        7.3819491709
 Cd        -6.4429261463       -6.2347087238        0.4622469067
 Cd        -4.3123952394       -6.8285875372        3.9039095072
 Cd        -6.1141073353        3.8626235599        2.9066844924
 Cd        -3.6048790416        2.8797284733        6.5917986711
 Cd        -6.7531255596        1.1841266196       -0.3182182747
 Cd        -4.0437606329        0.0729837467        3.0511954168
 Cd        -1.7753257667       -0.3121054857        6.8316599018
 Cd        -6.3661028473       -1.4630135273       -3.4383357626
 Cd        -4.3602814436       -3.1214810613       -0.1759283953
 Cd        -2.2424276819       -3.6242998489        3.6335413818
 Cd         0.1757294635       -3.9625201566        7.0364714760
 Cd        -4.2692200317       -5.9860442556       -3.0005266361
 Cd        -2.2482225396       -6.7972628816        0.6786391664
 Cd         0.0669003827       -7.3030327295        3.8545421700
 Cd        -4.0792754193        7.4105475565        2.4175118797
 Cd        -1.6116442377        6.4880648240        6.2478272306
 Cd        -4.3308002626        4.8127262164       -0.6762739309
 Cd        -1.8326132452        3.6694977750        3.1598212265
 Cd         0.4939817277        3.1637060931        6.7202662426
 Cd        -4.5980154021        1.9988297698       -4.0880170010
 Cd        -2.1651194586        1.0165564496       -0.4536921834
 Cd         0.1376109507       -0.0659106884        3.1336818174
 Cd         2.6419074521       -0.6636939286        6.8958319365
 Cd        -4.1515129292       -0.5348426091       -6.9620217917
 Cd        -2.2012490343       -1.8491984656       -3.4894107829
 Cd         0.0359311218       -2.8494155653       -0.0264680683
 Cd         2.4407298775       -3.8224684908        3.5289587884
 Cd         4.5907434619       -4.2169180472        6.5928471603
 Cd        -2.6321953796       -4.5685798778       -6.0773989300
 Cd        -0.3638438279       -6.1221236347       -3.0620735359
 Cd         1.9882729153       -6.8506852632       -0.0376753302
 Cd         4.3604701588       -7.5063202656        3.0981086138
 Cd        -2.4313710890        8.2839908015       -1.2010761441
 Cd         0.1210964618        6.7915494583        2.0748938605
 Cd         2.2602783261        6.3879934074        5.9824457591
 Cd        -2.2743307721        5.5403016700       -4.1096429978
 Cd         0.1552258413        4.6164378819       -0.9814446932
 Cd         2.6173372932        3.7540356816        2.4616712460
 Cd         4.3934694910        2.5024270436        5.6448470259
 Cd        -2.3839877703        3.0961459608       -7.5397423510
 Cd        -0.1308699873        1.7716472388       -4.3458913396
 Cd         2.1522040622        0.8595996928       -0.9600505658
 Cd         4.3027041934       -0.4425155449        2.5248589789
 Cd         6.4943132815       -0.6514444341        6.0110723312
 Cd         0.4032906214       -0.5920449882       -7.0625722312
 Cd         2.1504065746       -1.8410095193       -3.9631978812
 Cd         4.1282053355       -2.9764966895       -0.5499119195
 Cd         6.9189885741       -3.8001688729        2.8840486736
 Cd         1.0693858855       -4.7693596381       -6.7909688629
 Cd         3.6529341800       -5.7620820022       -3.6150795142
 Cd         5.7341856059       -6.5625995016       -0.3323817960
 Cd         2.4532379782        8.1225833618       -1.1556872380
 Cd         4.4025673150        7.2904811152        1.7928276254
 Cd         2.3800547108        5.2453457502       -4.8107637235
 Cd         4.8184663347        4.7191125514       -1.4277792117
 Cd         6.7589411702        3.8390778732        2.0295448973
 Cd         2.6210634084        2.7844913241       -7.7035228004
 Cd         4.8495943395        1.7843685348       -4.5225056138
 Cd         6.7261500983        1.0662237140       -0.9642295531
 Cd         8.8881450478        0.4141445330        2.4369093904
 Cd         4.3615782352       -0.9213178924       -7.7328888960
 Cd         6.7438649008       -1.9767569930       -4.2031112584
 Cd         8.5272445020       -2.6218905711       -0.2551455218
 Se        -9.0557725106        0.2424574140        0.9180313808
 Se        -6.3745872764       -0.6570220647        4.4225742627
 Se        -3.9358548519       -1.3506397678        8.2925868769
 Se        -6.5830028390       -3.7408669090        1.3890860046
 Se        -4.5802302415       -4.2716541219        4.8585926421
 Se        -4.6110671623       -7.7792240778        1.5343213278
 Se        -6.6407812351        3.9866809498        0.4586064126
 Se        -4.0705866514        2.6241591830        3.9150270775
 Se        -1.6315747320        2.0143859544        7.9219454430
 Se        -6.7106235468        0.9827493806       -3.1628202938
 Se        -4.4077684895       -0.2106461950        0.3970531668
 Se        -2.0534879979       -1.1190641497        4.2604482105
 Se         0.4069246601       -1.5676855049        8.0617057342
 Se        -4.4126107232       -3.1307459794       -2.8028288282
 Se        -2.2371864822       -4.0884616040        0.9473336128
 Se         0.1541797359       -4.8148952714        4.4843326207
 Se        -2.4147106009       -7.4199706225       -2.0529393442
 Se        -0.0662571417       -7.8800811154        1.3078284855
 Se        -4.5519687636        7.5920037884       -0.0122560791
 Se        -1.8482840651        6.3647212661        3.5390459072
 Se         0.4006735392        5.8241498358        7.5878867146
 Se        -4.4655945585        4.5529209660       -3.3484418515
 Se        -2.0798083538        3.7153034916        0.3451575142
 Se         0.4973892782        2.6967113851        3.7286137790
 Se         2.7724753484        1.9958260876        7.6298945277
 Se        -4.6126224962        2.0736182894       -6.9031574659
 Se        -2.2770211290        0.8531533747       -3.1284312065
 Se         0.0138865169       -0.1636477002        0.3858468104
 Se         2.3115473387       -1.3198431962        4.0017354986
 Se         4.8624545925       -1.8855864388        7.7371297607
 Se        -2.0700877949       -1.9675257511       -6.4603372509
 Se        -0.0447057629       -3.1582708631       -2.8090856920
 Se         2.2343306950       -4.2299664240        0.7817840723
 Se         4.8342987615       -4.9516929708        4.0974643468
 Se        -0.7556003326       -6.2829108386       -5.8406699955
 Se         1.9243057511       -7.4784768035       -2.6074198353
 Se         4.2543989663       -8.3809591814        0.7363809319
 Se         0.0386925703        7.3677075300       -0.4939635450
 Se         2.3791568525        6.5289221229        3.1400383851
 Se         0.0465974103        4.4270318221       -3.5936563407
 Se         2.5167269427        3.6273521599       -0.0581806204
 Se         4.7705604635        2.4670139639        3.1233546104
 Se         0.0435933033        1.9323944164       -6.9695738842
 Se         2.2733127965        0.7623703678       -3.6584263160
 Se         4.3816175435       -0.2841549253       -0.0177063702
 Se         6.9670500347       -1.1290204494        3.5565582379
 Se         2.2410869402       -2.2702007814       -6.6798205275
 Se         4.3723294721       -3.1971869108       -3.2130677403
 Se         6.4331938555       -4.1098532443        0.4136420186
 Se         4.8503033307        7.5509093293       -0.7463548497
 Se         4.8776288797        4.5477652435       -4.0091414448
 Se         7.0830986217        3.5950723552       -0.6434567968
 Se         4.7810064642        1.5273410534       -7.5566303287
 Se         6.9188050062        0.6130038217       -3.7081238627
 Se         9.1066871843       -0.0609359671       -0.0919647969
  C         6.9955771113       -6.9586634775       -2.8583426301
  H         7.7780160969       -7.1271873265       -3.6573399650
  O         5.8389952916       -6.4652991204       -3.1445809228
  O         7.2920676004       -7.2683568805       -1.6893132711
  C         3.3939431960       -6.2668607509       -6.9513074648
  H         4.3245440932       -6.8689211647       -7.0591687882
  O         3.0202466073       -5.7860511295       -5.7843136273
  O         2.6220129789       -6.1746538788       -7.9242101403
  C         6.3116555909       -2.9071154185       -7.4921130606
  H         7.0978863851       -3.7212906458       -7.4285512081
  O         6.0096715894       -2.3219711192       -6.3505932827
  O         5.9403243477       -2.4750431756       -8.6116316973
  C         8.9837561036       -3.3697375837       -3.4349055328
  H         9.9249943929       -3.8864043165       -3.1840078659
  O         8.5659407989       -3.4209184445       -4.6048832464
  O         8.2714489672       -2.6971151254       -2.5207012617
  C         9.7902109758       -4.6282247391        2.1768529346
  H        10.6284324694       -5.3337138149        2.3552924638
  O         9.7484501532       -4.1824896055        0.9942458601
  O         9.0219926648       -4.5705851174        3.1873629795
  C        -2.8252708508       -8.8894178348        5.3653894160
  H        -2.3915771747       -9.8892286280        5.4446685031
  O        -1.9808601030       -7.9304545651        5.0436955975
  O        -4.0908415257       -8.7280019527        5.4030844137
  C         3.0047406823       -8.6887063298        5.2919739424
  H         2.6853413808       -9.0312323512        6.2714246943
  O         1.9985977812       -8.3553887881        4.5599054594
  O         4.2197147413       -8.6069092298        4.9235206312
  C         2.8732291572       -5.7090624943        8.2322507888
  H         2.4095730423       -6.3582442170        8.9295273658
  O         2.2236878889       -4.8031284854        7.6183804854
  O         4.1525405945       -5.8988692439        8.1468427445
  C        -2.5324052264       -5.9090323801        8.5168983878
  H        -2.0058427467       -6.7599986745        9.0204193621
  O        -1.9189018681       -5.2527647032        7.5983339134
  O        -3.6521974131       -5.4981014961        8.8936623702
  C        -6.8661340661        2.3082426882        7.3884767521
  H        -7.2433530482        3.2983326111        7.3747512577
  O        -5.6189307919        2.1553364867        7.5292857639
  O        -7.6694328727        1.3672322100        7.2032576312
  C        -4.1128935570        6.2776012356        7.2258109093
  H        -5.2184092536        6.2949225170        7.4003980339
  O        -3.5215502414        5.2331222329        6.7794929280
  O        -3.5956064510        7.4679880815        7.3184340370
  C        -6.2584500423        7.1467273309        4.0778865765
  H        -7.2018864753        7.1620259062        4.6862261037
  O        -5.8042352338        6.0508881806        3.6277903665
  O        -5.6141473350        8.2227071687        3.8530055117
  C        -9.2670155991        2.9624473135        4.4549609073
  H        -9.7760873251        3.8307467380        4.7753730710
  O        -8.0580447847        3.0137717908        4.1153681461
  O       -10.0869615960        1.9755230626        4.3964141791
  C        -9.5997958208       -3.5202239981        4.2555074891
  H       -10.6284324694       -3.6062117458        4.7363993397
  O        -9.3836198173       -2.7271085544        3.2939504316
  O        -8.6749593009       -4.3055307223        4.7674147240
  C        -5.4063829718       -6.0836320759       -6.1576393485
  H        -6.0390997038       -6.5934387315       -6.8768176703
  O        -5.3157147411       -6.5042627408       -4.9638375967
  O        -4.7997118332       -5.0931497246       -6.6842330004
  C        -7.4812021438       -7.2683192216       -1.8337008205
  H        -7.8430239833       -7.7214409635       -2.7403108931
  O        -6.3847231004       -6.5596142310       -1.8855223803
  O        -8.0870004405       -7.4369608581       -0.7449951352
  C        -9.2637717352       -3.4248031045       -2.1287629167
  H        -9.5435102925       -4.0726156799       -2.9624854104
  O        -8.1685743898       -2.7562864935       -2.2769679175
  O        -9.8293124780       -3.4993302663       -1.0042472880
  C        -6.7198117275       -1.5155721631       -7.0057360974
  H        -7.7266400310       -1.9701098143       -7.1795729881
  O        -6.3208037730       -1.2812141421       -5.7891801227
  O        -6.0546670581       -1.2647410752       -8.0219575549
  C        -1.9610306020        5.6962737072       -7.4797868569
  H        -1.8068881661        6.7616764611       -7.4798700689
  O        -2.4613788677        5.1953402046       -6.4147373301
  O        -1.7592038190        5.0404242691       -8.5376948407
  C        -1.7153677193        9.0065729983       -3.7807068554
  H        -1.3518565997        9.2891789052       -4.8285272378
  O        -1.7735635219        7.7204009534       -3.5311974415
  O        -1.9589811591        9.8892286280       -2.9296575010
  C         2.5176986766        8.6527359013       -4.1276241396
  H         2.7356319561        9.0838176512       -5.0545617483
  O         2.0941304229        7.4607563111       -4.0382054964
  O         2.6632020791        9.4136986823       -3.1567247192
  C         1.7405814703        5.3615037054       -8.2026998584
  H         1.4592813282        6.4433815072       -8.3446733349
  O         2.2712544771        5.0744229803       -7.0359036782
  O         1.5374971892        4.4786315137       -9.0204193621
  C         9.4791869119        2.6134878200        3.9079418032
  H         9.6264681644        3.4611325178        4.5867541287
  O         8.5294682966        2.7206869475        3.0468687327
  O        10.1884170796        1.5361363159        4.0354546634
  C         6.6320899766        7.0427804887        3.3240585285
  H         7.5183451153        7.1103565644        4.0025867163
  O         6.4921259472        6.1579139584        2.4473334656
  O         5.8014508194        7.8970951585        3.5804466065
  C         4.7468288793        5.8510846562        6.9391041765
  H         5.6837062732        5.7110173508        7.4566454645
  O         4.3315486404        4.9881730889        6.0840680113
  O         4.1390624477        6.9214380767        7.1338855679
  C         7.5642974957        1.7429307679        7.1823006621
  H         8.1116275708        2.6102062210        7.6466333920
  O         6.7423080014        2.0330978891        6.2208765696
  O         7.8434776238        0.5800715711        7.5931108165
     227
 i =        1, time =        1.000, E =       -56.3895964945
 Cd        -8.6193676729        0.4797343947        3.4771535484
 Cd        -5.8715276498       -0.2570961234        7.1144354361
 Cd        -8.4083142692       -2.1541559461        0.3852122792
 Cd        -6.8927750529       -3.2918174448        3.9610778259
 Cd        -3.6901745742       -3.7004477901        7.3825067344
 Cd        -6.4420272325       -6.2358481087        0.4641858405
 Cd        -4.3123466027       -6.8297445160        3.9052407293
 Cd        -6.1164562944        3.8609729036        2.9055767547
 Cd        -3.6066829082        2.8812686773        6.5905358903
 Cd        -6.7535111156        1.1872867889       -0.3192566697
 Cd        -4.0445213908        0.0755289029        3.0502444452
 Cd        -1.7741561390       -0.3125650326        6.8337705737
 Cd        -6.3661914536       -1.4623819455       -3.4402277287
 Cd        -4.3613722695       -3.1217910678       -0.1745360695
 Cd        -2.2426444578       -3.6215515202        3.6336649796
 Cd         0.1787715399       -3.9616133447        7.0370186809
 Cd        -4.2694671355       -5.9883699581       -2.9988983377
 Cd        -2.2486733522       -6.7967537217        0.6791091742
 Cd         0.0678114667       -7.3030534620        3.8542501519
 Cd        -4.0804705181        7.4119247330        2.4182780513
 Cd        -1.6108764359        6.4878909767        6.2510948126
 Cd        -4.3326735884        4.8128329142       -0.6770209805
 Cd        -1.8304651347        3.6696231531        3.1589541457
 Cd         0.4898146869        3.1632773710        6.7207178142
 Cd        -4.5997996539        2.0002005986       -4.0890156618
 Cd        -2.1629739695        1.0181384933       -0.4518062547
 Cd         0.1384619490       -0.0681961793        3.1344974961
 Cd         2.6424204166       -0.6635619593        6.8961044694
 Cd        -4.1542510556       -0.5351659079       -6.9611558742
 Cd        -2.2032292274       -1.8491256247       -3.4900356991
 Cd         0.0358077012       -2.8476046665       -0.0251123560
 Cd         2.4397013409       -3.8215640716        3.5304916011
 Cd         4.5937898610       -4.2152570096        6.5947952006
 Cd        -2.6317528684       -4.5700633169       -6.0786164136
 Cd        -0.3609663239       -6.1212595109       -3.0631875351
 Cd         1.9863740204       -6.8524956864       -0.0374904789
 Cd         4.3578162827       -7.5051820805        3.0974783989
 Cd        -2.4320743568        8.2867379162       -1.2004883233
 Cd         0.1211461996        6.7911812815        2.0748490559
 Cd         2.2582472282        6.3879138779        5.9828228975
 Cd        -2.2740765295        5.5405790563       -4.1122004018
 Cd         0.1544454106        4.6149255660       -0.9824426188
 Cd         2.6165756626        3.7533120719        2.4609854051
 Cd         4.3940236674        2.5016197110        5.6447464758
 Cd        -2.3865386190        3.0938913865       -7.5398665772
 Cd        -0.1312679267        1.7710305508       -4.3474678578
 Cd         2.1533024971        0.8600393689       -0.9632544329
 Cd         4.3035412546       -0.4402137897        2.5247584810
 Cd         6.4921282605       -0.6517137441        6.0105460756
 Cd         0.4042849246       -0.5927914014       -7.0621318011
 Cd         2.1514278002       -1.8411396673       -3.9633946173
 Cd         4.1300972175       -2.9780586297       -0.5482699720
 Cd         6.9198792863       -3.7970027104        2.8854726820
 Cd         1.0697204976       -4.7693719576       -6.7906314628
 Cd         3.6507303502       -5.7626051957       -3.6178142840
 Cd         5.7330971941       -6.5641210830       -0.3328920432
 Cd         2.4551840545        8.1223156410       -1.1568036029
 Cd         4.4054991880        7.2897790727        1.7949067033
 Cd         2.3804303706        5.2453396866       -4.8087820765
 Cd         4.8191187753        4.7184910113       -1.4285204789
 Cd         6.7583243317        3.8401631617        2.0311733507
 Cd         2.6218304405        2.7830385224       -7.7034023530
 Cd         4.8495147483        1.7846896355       -4.5231095344
 Cd         6.7278729378        1.0650815068       -0.9631992534
 Cd         8.8867704134        0.4156625531        2.4347899895
 Cd         4.3619772582       -0.9226495867       -7.7308660288
 Cd         6.7428792341       -1.9756745534       -4.2012955747
 Cd         8.5291549090       -2.6208397328       -0.2528952900
 Se        -9.0544531889        0.2426734908        0.9183992706
 Se        -6.3726727312       -0.6565893801        4.4182597603
 Se        -3.9346072266       -1.3490722346        8.2961666875
 Se        -6.5830381976       -3.7425213495        1.3880499772
 Se        -4.5789410030       -4.2748381050        4.8596547214
 Se        -4.6121855121       -7.7761809407        1.5329437515
 Se        -6.6419455725        3.9854279894        0.4578221531
 Se        -4.0717528690        2.6208284676        3.9141809995
 Se        -1.6333753928        2.0116928228        7.9246185682
 Se        -6.7113345723        0.9827033002       -3.1653865341
 Se        -4.4069389864       -0.2111529304        0.3949848389
 Se        -2.0530910273       -1.1153422082        4.2592635898
 Se         0.4059977800       -1.5662782309        8.0647172180
 Se        -4.4158971032       -3.1298544466       -2.8045549022
 Se        -2.2374542219       -4.0915032203        0.9471935855
 Se         0.1530790820       -4.8126950368        4.4857082800
 Se        -2.4165922285       -7.4201810276       -2.0539959732
 Se        -0.0670059298       -7.8787447006        1.3096216829
 Se        -4.5516932218        7.5947482134       -0.0124609937
 Se        -1.8465279778        6.3632561880        3.5399102588
 Se         0.4036623319        5.8261789205        7.5854008424
 Se        -4.4656962940        4.5538611376       -3.3488819612
 Se        -2.0808742608        3.7152189151        0.3431156431
 Se         0.4981050199        2.6970495593        3.7285709366
 Se         2.7717255174        1.9957829220        7.6257522552
 Se        -4.6127852200        2.0745692979       -6.9048377342
 Se        -2.2787535381        0.8534098445       -3.1260945093
 Se         0.0145372239       -0.1632433279        0.3853862292
 Se         2.3130080806       -1.3189183957        3.9988452338
 Se         4.8630785122       -1.8843530718        7.7349789963
 Se        -2.0702578465       -1.9663644762       -6.4602733873
 Se        -0.0447928069       -3.1597683191       -2.8087506569
 Se         2.2323002456       -4.2312968413        0.7808829248
 Se         4.8361698321       -4.9529383461        4.0967153877
 Se        -0.7551702949       -6.2843742791       -5.8413666965
 Se         1.9249621639       -7.4786062683       -2.6074662885
 Se         4.2594049509       -8.3787811846        0.7365602431
 Se         0.0357316850        7.3684615599       -0.4910684734
 Se         2.3807624237        6.5252038856        3.1422757701
 Se         0.0436831448        4.4286765082       -3.5938921478
 Se         2.5162312345        3.6274702768       -0.0567296406
 Se         4.7725286820        2.4662109560        3.1253662388
 Se         0.0455202812        1.9296042635       -6.9702960374
 Se         2.2756296881        0.7647143473       -3.6569314205
 Se         4.3764754715       -0.2854087379       -0.0176596781
 Se         6.9675606404       -1.1295044928        3.5583135664
 Se         2.2366863051       -2.2679099188       -6.6837000714
 Se         4.3734575474       -3.1974145646       -3.2154696006
 Se         6.4330109243       -4.1116287599        0.4131651147
 Se         4.8511189680        7.5523346047       -0.7456558357
 Se         4.8771908386        4.5488311271       -4.0120334908
 Se         7.0852508720        3.5933032745       -0.6427218087
 Se         4.7812926717        1.5262734296       -7.5555069983
 Se         6.9181747425        0.6111958674       -3.7072592717
 Se         9.1066303113       -0.0628465738       -0.0920819900
  C         6.9966298174       -6.9495748465       -2.8612818397
  H         7.7649322095       -7.1224747738       -3.6684216540
  O         5.8434327249       -6.4670337492       -3.1398175704
  O         7.2877651890       -7.2736546180       -1.6930195936
  C         3.3951838616       -6.2671610372       -6.9490374871
  H         4.3444066225       -6.8936096686       -7.0753272229
  O         3.0185728896       -5.7904179907       -5.7814381067
  O         2.6172702493       -6.1683442366       -7.9236059665
  C         6.3106228134       -2.9079396284       -7.4907577073
  H         7.1299137504       -3.7048862282       -7.4466889051
  O         6.0083971162       -2.3178399635       -6.3471051217
  O         5.9387903330       -2.4737734084       -8.6120976045
  C         8.9772354659       -3.3709343522       -3.4295445169
  H         9.9250180562       -3.8774829974       -3.1826003730
  O         8.5676512334       -3.4144586618       -4.6043554113
  O         8.2712508570       -2.6966596020       -2.5197654693
  C         9.7978733849       -4.6251219246        2.1809182556
  H        10.6408655401       -5.3318691344        2.3887999993
  O         9.7465462366       -4.1799507175        0.9924159976
  O         9.0276873604       -4.5677221813        3.1868942229
  C        -2.8216508764       -8.8882276337        5.3598611153
  H        -2.4154187803       -9.9024293192        5.4343946394
  O        -1.9846398048       -7.9302572137        5.0419583592
  O        -4.0903959562       -8.7267652379        5.4040197698
  C         2.9968663010       -8.6914005040        5.2874610197
  H         2.6967725338       -9.0398269484        6.2934215078
  O         1.9990855293       -8.3573230006        4.5591511415
  O         4.2233467879       -8.5998988499        4.9145476283
  C         2.8791923204       -5.7053415392        8.2322560700
  H         2.3955873073       -6.3773024893        8.9303283437
  O         2.2187075899       -4.8085175989        7.6157466151
  O         4.1498425616       -5.9029364758        8.1529016973
  C        -2.5346614590       -5.9173731659        8.5217508377
  H        -2.0052498086       -6.7390725628        9.0096019785
  O        -1.9215288378       -5.2575966713        7.5981395202
  O        -3.6522105851       -5.5078280873        8.8921347138
  C        -6.8630242455        2.3027403587        7.3889149894
  H        -7.2086193538        3.3071349018        7.3885257928
  O        -5.6208563182        2.1587921908        7.5332019438
  O        -7.6689214003        1.3698388954        7.1998688321
  C        -4.1170656841        6.2826730063        7.2279891791
  H        -5.2418933127        6.2896177269        7.3832000201
  O        -3.5261321020        5.2287812920        6.7734686505
  O        -3.5905191466        7.4669807624        7.3175842409
  C        -6.2566434105        7.1460634514        4.0781675728
  H        -7.2111390447        7.1649409639        4.6689854642
  O        -5.8086350283        6.0475724901        3.6275779235
  O        -5.6119774087        8.2201907766        3.8481937095
  C        -9.2739939124        2.9616294276        4.4605463053
  H        -9.7855372140        3.8838940690        4.7760086716
  O        -8.0584029467        3.0117358560        4.1190294883
  O       -10.0804355466        1.9786948579        4.3919448214
  C        -9.6031248875       -3.5281326705        4.2550749893
  H       -10.5971720209       -3.6001750875        4.7566807035
  O        -9.3826050643       -2.7226496237        3.2942887352
  O        -8.6778099552       -4.3011787496        4.7626363083
  C        -5.4081413647       -6.0790836352       -6.1560340531
  H        -6.0546960796       -6.5859836395       -6.8890942905
  O        -5.3104798732       -6.5036005996       -4.9646054841
  O        -4.7976992074       -5.0924857397       -6.6849240588
  C        -7.4873965901       -7.2703319035       -1.8348350040
  H        -7.8388434959       -7.7173330376       -2.7530342297
  O        -6.3883677626       -6.5545679268       -1.8838493592
  O        -8.0710906693       -7.4404005896       -0.7454226282
  C        -9.2560574312       -3.4270814745       -2.1219050429
  H        -9.5270787848       -4.0663584857       -2.9594189931
  O        -8.1694369794       -2.7551514186       -2.2724730595
  O        -9.8236690015       -3.4936377048       -1.0088845637
  C        -6.7206210908       -1.5102880297       -7.0044418720
  H        -7.7450574417       -1.9674181007       -7.1698505571
  O        -6.3192010360       -1.2782281337       -5.7985883471
  O        -6.0625710881       -1.2633670181       -8.0150466642
  C        -1.9627453915        5.6954529447       -7.4851644693
  H        -1.7770888886        6.7764005651       -7.4923242406
  O        -2.4608876630        5.1862591741       -6.4084241829
  O        -1.7565906194        5.0396167943       -8.5277751942
  C        -1.7167335716        9.0073316887       -3.7839312711
  H        -1.3493405476        9.2660238074       -4.8465614694
  O        -1.7703622115        7.7189606356       -3.5242857805
  O        -1.9638481107        9.8889501772       -2.9402665475
  C         2.5061009968        8.6537337724       -4.1272936861
  H         2.7131102182        9.0638249498       -5.0476060874
  O         2.0944626340        7.4527162550       -4.0306730655
  O         2.6625317081        9.4107817759       -3.1546682350
  C         1.7409706661        5.3672221204       -8.1967197040
  H         1.4358383610        6.4416008070       -8.3632925476
  O         2.2781442047        5.0760234102       -7.0400290599
  O         1.5316284687        4.4828217918       -9.0170225536
  C         9.4766145855        2.6095964464        3.9000730918
  H         9.6131090334        3.4671477718        4.5843902861
  O         8.5275609793        2.7171126917        3.0488741479
  O        10.1880136202        1.5397847916        4.0325555276
  C         6.6325609035        7.0381017811        3.3282893641
  H         7.5082674956        7.1289998248        4.0070788575
  O         6.4939275653        6.1599874559        2.4464724242
  O         5.7949366119        7.9026544761        3.5807138059
  C         4.7448246209        5.8523928684        6.9352000955
  H         5.7085862008        5.7040540943        7.4370666698
  O         4.3281011824        4.9883482791        6.0812115119
  O         4.1449766380        6.9221526220        7.1365420455
  C         7.5602902163        1.7452907979        7.1876567921
  H         8.1158840311        2.6116602203        7.6593692779
  O         6.7453655145        2.0299179528        6.2242223154
  O         7.8431271992        0.5818509364        7.5888881860
     227
 i =        2, time =        2.000, E =       -56.4339887342
 Cd        -8.6170975915        0.4786860926        3.4767013099
 Cd        -5.8707323006       -0.2572591633        7.1138063583
 Cd        -8.4092602489       -2.1552607249        0.3835819550
 Cd        -6.8898568988       -3.2939763829        3.9620521195