     227
 i =        0, time =        0.000, E =       -11.6084172937
 Cd        -8.6216924880        0.4810107428        3.4775887729
 Cd        -5.8723589632       -0.2566559957        7.1151373767
 Cd        -8.4076147924       -2.1531404527        0.3867588804
 Cd        -6.8957642261       -3.2896665849        3.9600318291
 Cd        -3.6930098048       -3.6992689615        7.3819491709
 Cd        -6.4429261463       -6.2347087238        0.4622469067
 Cd        -4.3123952394       -6.8285875372        3.9039095072
 Cd        -6.1141073353        3.8626235599        2.9066844924
 Cd        -3.6048790416        2.8797284733        6.5917986711
 Cd        -6.7531255596        1.1841266196       -0.3182182747
 Cd        -4.0437606329        0.0729837467        3.0511954168
 Cd        -1.7753257667       -0.3121054857        6.8316599018
 Cd        -6.3661028473       -1.4630135273       -3.4383357626
 Cd        -4.3602814436       -3.1214810613       -0.1759283953
 Cd        -2.2424276819       -3.6242998489        3.6335413818
 Cd         0.1757294635       -3.9625201566        7.0364714760
 Cd        -4.2692200317       -5.9860442556       -3.0005266361
 Cd        -2.2482225396       -6.7972628816        0.6786391664
 Cd         0.0669003827       -7.3030327295        3.8545421700
 Cd        -4.0792754193        7.4105475565        2.4175118797
 Cd        -1.6116442377        6.4880648240        6.2478272306
 Cd        -4.3308002626        4.8127262164       -0.6762739309
 Cd        -1.8326132452        3.6694977750        3.1598212265
 Cd         0.4939817277        3.1637060931        6.7202662426
 Cd        -4.5980154021        1.9988297698       -4.0880170010
 Cd        -2.1651194586        1.0165564496       -0.4536921834
 Cd         0.1376109507       -0.0659106884        3.1336818174
 Cd         2.6419074521       -0.6636939286        6.8958319365
 Cd        -4.1515129292       -0.5348426091       -6.9620217917
 Cd        -2.2012490343       -1.8491984656       -3.4894107829
 Cd         0.0359311218       -2.8494155653       -0.0264680683
 Cd         2.4407298775       -3.8224684908        3.5289587884
 Cd         4.5907434619       -4.2169180472        6.5928471603
 Cd        -2.6321953796       -4.5685798778       -6.0773989300
 Cd        -0.3638438279       -6.1221236347       -3.0620735359
 Cd         1.9882729153       -6.8506852632       -0.0376753302
 Cd         4.3604701588       -7.5063202656        3.0981086138
 Cd        -2.4313710890        8.2839908015       -1.2010761441
 Cd         0.1210964618        6.7915494583        2.0748938605
 Cd         2.2602783261        6.3879934074        5.9824457591
 Cd        -2.2743307721        5.5403016700       -4.1096429978
 Cd         0.1552258413        4.6164378819       -0.9814446932
 Cd         2.6173372932        3.7540356816        2.4616712460
 Cd         4.3934694910        2.5024270436        5.6448470259
 Cd        -2.3839877703        3.0961459608       -7.5397423510
 Cd        -0.1308699873        1.7716472388       -4.3458913396
 Cd         2.1522040622        0.8595996928       -0.9600505658
 Cd         4.3027041934       -0.4425155449        2.5248589789
 Cd         6.4943132815       -0.6514444341        6.0110723312
 Cd         0.4032906214       -0.5920449882       -7.0625722312
 Cd         2.1504065746       -1.8410095193       -3.9631978812
 Cd         4.1282053355       -2.9764966895       -0.5499119195
 Cd         6.9189885741       -3.8001688729        2.8840486736
 Cd         1.0693858855       -4.7693596381       -6.7909688629
 Cd         3.6529341800       -5.7620820022       -3.6150795142
 Cd         5.7341856059       -6.5625995016       -0.3323817960
 Cd         2.4532379782        8.1225833618       -1.1556872380
 Cd         4.4025673150        7.2904811152        1.7928276254
 Cd         2.3800547108        5.2453457502       -4.8107637235
 Cd         4.8184663347        4.7191125514       -1.4277792117
 Cd         6.7589411702        3.8390778732        2.0295448973
 Cd         2.6210634084        2.7844913241       -7.7035228004
 Cd         4.8495943395        1.7843685348       -4.5225056138
 Cd         6.7261500983        1.0662237140       -0.9642295531
 Cd         8.8881450478        0.4141445330        2.4369093904
 Cd         4.3615782352       -0.9213178924       -7.7328888960
 Cd         6.7438649008       -1.9767569930       -4.2031112584
 Cd         8.5272445020       -2.6218905711       -0.2551455218
 Se        -9.0557725106        0.2424574140        0.9180313808
 Se        -6.3745872764       -0.6570220647        4.4225742627
 Se        -3.9358548519       -1.3506397678        8.2925868769
 Se        -6.5830028390       -3.7408669090        1.3890860046
 Se        -4.5802302415       -4.2716541219        4.8585926421
 Se        -4.6110671623       -7.7792240778        1.5343213278
 Se        -6.6407812351        3.9866809498        0.4586064126
 Se        -4.0705866514        2.6241591830        3.9150270775
 Se        -1.6315747320        2.0143859544        7.9219454430
 Se        -6.7106235468        0.9827493806       -3.1628202938
 Se        -4.4077684895       -0.2106461950        0.3970531668
 Se        -2.0534879979       -1.1190641497        4.2604482105
 Se         0.4069246601       -1.5676855049        8.0617057342
 Se        -4.4126107232       -3.1307459794       -2.8028288282
 Se        -2.2371864822       -4.0884616040        0.9473336128
 Se         0.1541797359       -4.8148952714        4.4843326207
 Se        -2.4147106009       -7.4199706225       -2.0529393442
 Se        -0.0662571417       -7.8800811154        1.3078284855
 Se        -4.5519687636        7.5920037884       -0.0122560791
 Se        -1.8482840651        6.3647212661        3.5390459072
 Se         0.4006735392        5.8241498358        7.5878867146
 Se        -4.4655945585        4.5529209660       -3.3484418515
 Se        -2.0798083538        3.7153034916        0.3451575142
 Se         0.4973892782        2.6967113851        3.7286137790
 Se         2.7724753484        1.9958260876        7.6298945277
 Se        -4.6126224962        2.0736182894       -6.9031574659
 Se        -2.2770211290        0.8531533747       -3.1284312065
 Se         0.0138865169       -0.1636477002        0.3858468104
 Se         2.3115473387       -1.3198431962        4.0017354986
 Se         4.8624545925       -1.8855864388        7.7371297607
 Se        -2.0700877949       -1.9675257511       -6.4603372509
 Se        -0.0447057629       -3.1582708631       -2.8090856920
 Se         2.2343306950       -4.2299664240        0.7817840723
 Se         4.8342987615       -4.9516929708        4.0974643468
 Se        -0.7556003326       -6.2829108386       -5.8406699955
 Se         1.9243057511       -7.4784768035       -2.6074198353
 Se         4.2543989663       -8.3809591814        0.7363809319
 Se         0.0386925703        7.3677075300       -0.4939635450
 Se         2.3791568525        6.5289221229        3.1400383851
 Se         0.0465974103        4.4270318221       -3.5936563407
 Se         2.5167269427        3.6273521599       -0.0581806204
 Se         4.7705604635        2.4670139639        3.1233546104
 Se         0.0435933033        1.9323944164       -6.9695738842
 Se         2.2733127965        0.7623703678       -3.6584263160
 Se         4.3816175435       -0.2841549253       -0.0177063702
 Se         6.9670500347       -1.1290204494        3.5565582379
 Se         2.2410869402       -2.2702007814       -6.6798205275
 Se         4.3723294721       -3.1971869108       -3.2130677403
 Se         6.4331938555       -4.1098532443        0.4136420186
 Se         4.8503033307        7.5509093293       -0.7463548497
 Se         4.8776288797        4.5477652435       -4.0091414448
 Se         7.0830986217        3.5950723552       -0.6434567968
 Se         4.7810064642        1.5273410534       -7.5566303287
 Se         6.9188050062        0.6130038217       -3.7081238627
 Se         9.1066871843       -0.0609359671       -0.0919647969
  C         6.9955771113       -6.9586634775       -2.8583426301
  H         7.7780160969       -7.1271873265       -3.6573399650
  O         5.8389952916       -6.4652991204       -3.1445809228
  O         7.2920676004       -7.2683568805       -1.6893132711
  C         3.3939431960       -6.2668607509       -6.9513074648
  H         4.3245440932       -6.8689211647       -7.0591687882
  O         3.0202466073       -5.7860511295       -5.7843136273
  O         2.6220129789       -6.1746538788       -7.9242101403
  C         6.3116555909       -2.9071154185       -7.4921130606
  H         7.0978863851       -3.7212906458       -7.4285512081
  O         6.0096715894       -2.3219711192       -6.3505932827
  O         5.9403243477       -2.4750431756       -8.6116316973
  C         8.9837561036       -3.3697375837       -3.4349055328
  H         9.9249943929       -3.8864043165       -3.1840078659
  O         8.5659407989       -3.4209184445       -4.6048832464
  O         8.2714489672       -2.6971151254       -2.5207012617
  C         9.7902109758       -4.6282247391        2.1768529346
  H        10.6284324694       -5.3337138149        2.3552924638
  O         9.7484501532       -4.1824896055        0.9942458601
  O         9.0219926648       -4.5705851174        3.1873629795
  C        -2.8252708508       -8.8894178348        5.3653894160
  H        -2.3915771747       -9.8892286280        5.4446685031
  O        -1.9808601030       -7.9304545651        5.0436955975
  O        -4.0908415257       -8.7280019527        5.4030844137
  C         3.0047406823       -8.6887063298        5.2919739424
  H         2.6853413808       -9.0312323512        6.2714246943
  O         1.9985977812       -8.3553887881        4.5599054594
  O         4.2197147413       -8.6069092298        4.9235206312
  C         2.8732291572       -5.7090624943        8.2322507888
  H         2.4095730423       -6.3582442170        8.9295273658
  O         2.2236878889       -4.8031284854        7.6183804854
  O         4.1525405945       -5.8988692439        8.1468427445
  C        -2.5324052264       -5.9090323801        8.5168983878
  H        -2.0058427467       -6.7599986745        9.0204193621
  O        -1.9189018681       -5.2527647032        7.5983339134
  O        -3.6521974131       -5.4981014961        8.8936623702
  C        -6.8661340661        2.3082426882        7.3884767521
  H        -7.2433530482        3.2983326111        7.3747512577
  O        -5.6189307919        2.1553364867        7.5292857639
  O        -7.6694328727        1.3672322100        7.2032576312
  C        -4.1128935570        6.2776012356        7.2258109093
  H        -5.2184092536        6.2949225170        7.4003980339
  O        -3.5215502414        5.2331222329        6.7794929280
  O        -3.5956064510        7.4679880815        7.3184340370
  C        -6.2584500423        7.1467273309        4.0778865765
  H        -7.2018864753        7.1620259062        4.6862261037
  O        -5.8042352338        6.0508881806        3.6277903665
  O        -5.6141473350        8.2227071687        3.8530055117
  C        -9.2670155991        2.9624473135        4.4549609073
  H        -9.7760873251        3.8307467380        4.7753730710
  O        -8.0580447847        3.0137717908        4.1153681461
  O       -10.0869615960        1.9755230626        4.3964141791
  C        -9.5997958208       -3.5202239981        4.2555074891
  H       -10.6284324694       -3.6062117458        4.7363993397
  O        -9.3836198173       -2.7271085544        3.2939504316
  O        -8.6749593009       -4.3055307223        4.7674147240
  C        -5.4063829718       -6.0836320759       -6.1576393485
  H        -6.0390997038       -6.5934387315       -6.8768176703
  O        -5.3157147411       -6.5042627408       -4.9638375967
  O        -4.7997118332       -5.0931497246       -6.6842330004
  C        -7.4812021438       -7.2683192216       -1.8337008205
  H        -7.8430239833       -7.7214409635       -2.7403108931
  O        -6.3847231004       -6.5596142310       -1.8855223803
  O        -8.0870004405       -7.4369608581       -0.7449951352
  C        -9.2637717352       -3.4248031045       -2.1287629167
  H        -9.5435102925       -4.0726156799       -2.9624854104
  O        -8.1685743898       -2.7562864935       -2.2769679175
  O        -9.8293124780       -3.4993302663       -1.0042472880
  C        -6.7198117275       -1.5155721631       -7.0057360974
  H        -7.7266400310       -1.9701098143       -7.1795729881
  O        -6.3208037730       -1.2812141421       -5.7891801227
  O        -6.0546670581       -1.2647410752       -8.0219575549
  C        -1.9610306020        5.6962737072       -7.4797868569
  H        -1.8068881661        6.7616764611       -7.4798700689
  O        -2.4613788677        5.1953402046       -6.4147373301
  O        -1.7592038190        5.0404242691       -8.5376948407
  C        -1.7153677193        9.0065729983       -3.7807068554
  H        -1.3518565997        9.2891789052       -4.8285272378
  O        -1.7735635219        7.7204009534       -3.5311974415
  O        -1.9589811591        9.8892286280       -2.9296575010
  C         2.5176986766        8.6527359013       -4.1276241396
  H         2.7356319561        9.0838176512       -5.0545617483
  O         2.0941304229        7.4607563111       -4.0382054964
  O         2.6632020791        9.4136986823       -3.1567247192
  C         1.7405814703        5.3615037054       -8.2026998584
  H         1.4592813282        6.4433815072       -8.3446733349
  O         2.2712544771        5.0744229803       -7.0359036782
  O         1.5374971892        4.4786315137       -9.0204193621
  C         9.4791869119        2.6134878200        3.9079418032
  H         9.6264681644        3.4611325178        4.5867541287
  O         8.5294682966        2.7206869475        3.0468687327
  O        10.1884170796        1.5361363159        4.0354546634
  C         6.6320899766        7.0427804887        3.3240585285
  H         7.5183451153        7.1103565644        4.0025867163
  O         6.4921259472        6.1579139584        2.4473334656
  O         5.8014508194        7.8970951585        3.5804466065
  C         4.7468288793        5.8510846562        6.9391041765
  H         5.6837062732        5.7110173508        7.4566454645
  O         4.3315486404        4.9881730889        6.0840680113
  O         4.1390624477        6.9214380767        7.1338855679
  C         7.5642974957        1.7429307679        7.1823006621
  H         8.1116275708        2.6102062210        7.6466333920
  O         6.7423080014        2.0330978891        6.2208765696
  O         7.8434776238        0.5800715711        7.5931108165
     227
 i =        1, time =        1.000, E =       -11.6175397740
 Cd        -8.6193443342        0.4796434242        3.4771636048
 Cd        -5.8715212480       -0.2572013183        7.1144027579
 Cd        -8.4082170121       -2.1541265513        0.3852401001
 Cd        -6.8927355464       -3.2918146883        3.9610957665
 Cd        -3.6901783130       -3.7003795095        7.3823831620
 Cd        -6.4419698605       -6.2357561046        0.4642767053
 Cd        -4.3123544713       -6.8296207055        3.9052069910
 Cd        -6.1163749252        3.8609290285        2.9055495966
 Cd        -3.6066103099        2.8812237762        6.5904092221
 Cd        -6.7534258487        1.1872322553       -0.3192212072
 Cd        -4.0444093859        0.0755177446        3.0501835936
 Cd        -1.7741883552       -0.3125658437        6.8335766004
 Cd        -6.3660882272       -1.4624178158       -3.4401712599
 Cd        -4.3613414924       -3.1217895984       -0.1745571503
 Cd        -2.2426114104       -3.6215605154        3.6336079486
 Cd         0.1787107850       -3.9615856239        7.0369338526
 Cd        -4.2693605673       -5.9882346243       -2.9988629938
 Cd        -2.2486951466       -6.7966262685        0.6791744027
 Cd         0.0677913590       -7.3029822873        3.8542259168
 Cd        -4.0802956877        7.4119363858        2.4182534587
 Cd        -1.6107711137        6.4879228737        6.2509681379
 Cd        -4.3325268026        4.8128040590       -0.6769501776
 Cd        -1.8303932845        3.6695895392        3.1589466822
 Cd         0.4898043275        3.1633427435        6.7205314223
 Cd        -4.5996356561        2.0001047336       -4.0890020388
 Cd        -2.1628867607        1.0181191818       -0.4517532188
 Cd         0.1384297112       -0.0681730931        3.1344116849
 Cd         2.6424447804       -0.6635631082        6.8959021675
 Cd        -4.1540726480       -0.5351529390       -6.9611295657
 Cd        -2.2031756064       -1.8491044444       -3.4900226283
 Cd         0.0358081190       -2.8474805589       -0.0250974212
 Cd         2.4397100580       -3.8215450100        3.5304681034
 Cd         4.5938395138       -4.2151933932        6.5946756348
 Cd        -2.6316845775       -4.5699808107       -6.0785445535
 Cd        -0.3609700683       -6.1210628478       -3.0631287602
 Cd         1.9864034000       -6.8523439574       -0.0374628682
 Cd         4.3578694518       -7.5050574488        3.0974037128
 Cd        -2.4320612367        8.2867244245       -1.2003484841
 Cd         0.1211452296        6.7911383304        2.0747981987
 Cd         2.2580920474        6.3879360164        5.9826532689
 Cd        -2.2740425612        5.5405401889       -4.1121194008
 Cd         0.1544598257        4.6148628170       -0.9823427185
 Cd         2.6165239244        3.7533493261        2.4610205771
 Cd         4.3939178172        2.5015261267        5.6446893689
 Cd        -2.3864821807        3.0937152034       -7.5398920338
 Cd        -0.1312639568        1.7709181865       -4.3474197596
 Cd         2.1531692618        0.8600188834       -0.9632016583
 Cd         4.3034626934       -0.4402605682        2.5248049270
 Cd         6.4920249274       -0.6517859168        6.0104824440
 Cd         0.4042675161       -0.5927782712       -7.0621290980
 Cd         2.1513121535       -1.8410919351       -3.9633314140
 Cd         4.1299714624       -2.9780227515       -0.5482313033
 Cd         6.9198198336       -3.7969806065        2.8855244086
 Cd         1.0695493915       -4.7692058154       -6.7906697611
 Cd         3.6506244883       -5.7625156038       -3.6177184588
 Cd         5.7329674027       -6.5640277185       -0.3327762379
 Cd         2.4551264099        8.1222954618       -1.1566093631
 Cd         4.4053422058        7.2897912969        1.7948280079
 Cd         2.3804055605        5.2452087101       -4.8087262714
 Cd         4.8189840698        4.7184522817       -1.4284118632
 Cd         6.7582296580        3.8401482883        2.0311422267
 Cd         2.6218061484        2.7828997922       -7.7033771740
 Cd         4.8493515009        1.7846639374       -4.5231263102
 Cd         6.7277187037        1.0650221408       -0.9631079551
 Cd         8.8867414477        0.4155765142        2.4347914718
 Cd         4.3618022620       -0.9226039551       -7.7309217213
 Cd         6.7427760561       -1.9756148312       -4.2012711126
 Cd         8.5291285681       -2.6208025867       -0.2527925143
 Se        -9.0547657329        0.2428660741        0.9183250272
 Se        -6.3727596173       -0.6564912996        4.4183053010
 Se        -3.9345415027       -1.3489484217        8.2965065400
 Se        -6.5831251359       -3.7425283391        1.3880864803
 Se        -4.5790760740       -4.2748323275        4.8597238575
 Se        -4.6122299217       -7.7765664495        1.5328452793
 Se        -6.6422520416        3.9855623778        0.4577208380
 Se        -4.0719585650        2.6208497599        3.9142862573
 Se        -1.6333314064        2.0117320026        7.9251012592
 Se        -6.7116492786        0.9828796605       -3.1654736585
 Se        -4.4070631350       -0.2111855827        0.3948966395
 Se        -2.0531397006       -1.1153532461        4.2593787788
 Se         0.4060039568       -1.5661582483        8.0650629459
 Se        -4.4160683614       -3.1299772858       -2.8046591103
 Se        -2.2374516017       -4.0915865039        0.9472044185
 Se         0.1530636699       -4.8127580450        4.4857975772
 Se        -2.4165682550       -7.4205936454       -2.0539553118
 Se        -0.0669685915       -7.8791153680        1.3095413759
 Se        -4.5521062452        7.5948376188       -0.0125823857
 Se        -1.8467397273        6.3632957941        3.5400575642
 Se         0.4037002956        5.8261688881        7.5858452440
 Se        -4.4660124858        4.5539572223       -3.3489519432
 Se        -2.0809838088        3.7152527616        0.3431759119
 Se         0.4982197189        2.6970122352        3.7286686390
 Se         2.7717947495        1.9958680653        7.6261938722
 Se        -4.6131583417        2.0747673936       -6.9049071547
 Se        -2.2788827183        0.8535211673       -3.1260975801
 Se         0.0145490961       -0.1632206022        0.3853945373
 Se         2.3129701006       -1.3189388677        3.9989949968
 Se         4.8631492672       -1.8843051619        7.7353905598
 Se        -2.0702199430       -1.9664133121       -6.4603756752
 Se        -0.0447339394       -3.1599187836       -2.8087902020
 Se         2.2323300173       -4.2314525069        0.7809345367
 Se         4.8362367198       -4.9530819923        4.0967209534
 Se        -0.7551455607       -6.2847934417       -5.8413944226
 Se         1.9250110192       -7.4790264943       -2.6076192188
 Se         4.2593703022       -8.3791601201        0.7364170100
 Se         0.0356498550        7.3686136791       -0.4913245475
 Se         2.3809063490        6.5252193703        3.1424508567
 Se         0.0437143108        4.4288272287       -3.5939920303
 Se         2.5163840459        3.6274422660       -0.0568139267
 Se         4.7726889216        2.4661946143        3.1253368911
 Se         0.0455238375        1.9299477905       -6.9704909800
 Se         2.2758166743        0.7648272074       -3.6570631534
 Se         4.3766424434       -0.2853691495       -0.0177867332
 Se         6.9677114019       -1.1294342564        3.5582537062
 Se         2.2369793003       -2.2681606813       -6.6837631398
 Se         4.3737240216       -3.1974916626       -3.2156546975
 Se         6.4331565350       -4.1116816871        0.4129920404
 Se         4.8515123021        7.5524181363       -0.7459053907
 Se         4.8774727958        4.5489795535       -4.0122143242
 Se         7.0855749326        3.5934443124       -0.6428953447
 Se         4.7816629459        1.5264080412       -7.5555470249
 Se         6.9185315276        0.6112265328       -3.7073690886
 Se         9.1068560530       -0.0627031530       -0.0923149556
  C         6.9966768858       -6.9498320156       -2.8612699232
  H         7.7649322095       -7.1224747738       -3.6684216540
  O         5.8439440088       -6.4672005535       -3.1400939852
  O         7.2884432189       -7.2740924829       -1.6935325306
  C         3.3950693641       -6.2673018141       -6.9491766662
  H         4.3444066225       -6.8936096686       -7.0753272229
  O         3.0188200710       -5.7908635475       -5.7819267465
  O         2.6176801794       -6.1688812312       -7.9239630197
  C         6.3106277902       -2.9078533445       -7.4910465720
  H         7.1299137504       -3.7048862282       -7.4466889051
  O         6.0085405948       -2.3181723408       -6.3473778143
  O         5.9393282562       -2.4742110606       -8.6124504100
  C         8.9774418638       -3.3708823433       -3.4296456505
  H         9.9250180562       -3.8774829974       -3.1826003730
  O         8.5682314808       -3.4148405025       -4.6046086225
  O         8.2717042605       -2.6966711781       -2.5199958064
  C         9.7980685147       -4.6251984964        2.1809956590
  H        10.6408655401       -5.3318691344        2.3887999993
  O         9.7470394550       -4.1804647258        0.9925624969
  O         9.0285090914       -4.5680942465        3.1870300086
  C        -2.8217286856       -8.8884318304        5.3598597736
  H        -2.4154187803       -9.9024293192        5.4343946394
  O        -1.9847188070       -7.9306343248        5.0423124766
  O        -4.0904650123       -8.7274066322        5.4043927483
  C         2.9969201787       -8.6916158827        5.2874276613
  H         2.6967725338       -9.0398269484        6.2934215078
  O         1.9992869828       -8.3578360068        4.5594006175
  O         4.2233801438       -8.6005001264        4.9153583877
  C         2.8793009828       -5.7053274132        8.2324227204
  H         2.3955873073       -6.3773024893        8.9303283437
  O         2.2189263171       -4.8088011778        7.6163186949
  O         4.1498464367       -5.9034354973        8.1535565178
  C        -2.5347116974       -5.9173486161        8.5219991778
  H        -2.0052498086       -6.7390725628        9.0096019785
  O        -1.9214220384       -5.2582990963        7.5983205422
  O        -3.6522430100       -5.5083690568        8.8927272304
  C        -6.8630667102        2.3027069870        7.3891982385
  H        -7.2086193538        3.3071349018        7.3885257928
  O        -5.6212618806        2.1590984901        7.5336738071
  O        -7.6695182254        1.3702347240        7.1999435382
  C        -4.1169984926        6.2828004772        7.2281857792
  H        -5.2418933127        6.2896177269        7.3832000201
  O        -3.5266348534        5.2290226034        6.7738130391
  O        -3.5910564933        7.4673177096        7.3180378027
  C        -6.2567402454        7.1462384436        4.0780947676
  H        -7.2111390447        7.1649409639        4.6689854642
  O        -5.8090355271        6.0478183197        3.6278472929
  O        -5.6127048295        8.2206911764        3.8486700079
  C        -9.2742146170        2.9617537114        4.4604789525
  H        -9.7855372140        3.8838940690        4.7760086716
  O        -8.0587996136        3.0119028840        4.1192608917
  O       -10.0810538854        1.9792193368        4.3921687660
  C        -9.6032759216       -3.5282180713        4.2551647548
  H       -10.5971720209       -3.6001750875        4.7566807035
  O        -9.3832519736       -2.7227882836        3.2942629047
  O        -8.6785190494       -4.3016348707        4.7629442071
  C        -5.4081383347       -6.0792304216       -6.1561908009
  H        -6.0546960796       -6.5859836395       -6.8890942905
  O        -5.3110042811       -6.5040711161       -4.9651434195
  O        -4.7983516863       -5.0927302111       -6.6852908620
  C        -7.4874915062       -7.2705676865       -1.8347950869
  H        -7.8388434959       -7.7173330376       -2.7530342297
  O        -6.3887237005       -6.5549737636       -1.8842681554
  O        -8.0716587231       -7.4408865875       -0.7458061039
  C        -9.2562732581       -3.4269999789       -2.1219742728
  H        -9.5270787848       -4.0663584857       -2.9594189931
  O        -8.1698071593       -2.7553942740       -2.2727090489
  O        -9.8241977672       -3.4939461661       -1.0091872838
  C        -6.7207080203       -1.5101476001       -7.0045971697
  H        -7.7450574417       -1.9674181007       -7.1698505571
  O        -6.3198138430       -1.2781071291       -5.7989730222
  O        -6.0632547963       -1.2634489169       -8.0154874603
  C        -1.9629053469        5.6954896257       -7.4853150964
  H        -1.7770888886        6.7764005651       -7.4923242406
  O        -2.4611749452        5.1866865117       -6.4086822852
  O        -1.7564230030        5.0403587798       -8.5283229801
  C        -1.7168910945        9.0075069343       -3.7839142078
  H        -1.3493405476        9.2660238074       -4.8465614694
  O        -1.7700670840        7.7194276722       -3.5246062433
  O        -1.9637603047        9.8895546480       -2.9408116601
  C         2.5062384744        8.6538857985       -4.1272906440
  H         2.7131102182        9.0638249498       -5.0476060874
  O         2.0944621853        7.4531987733       -4.0307296365
  O         2.6627503373        9.4111452715       -3.1552046935
  C         1.7411564893        5.3672426121       -8.1968653979
  H         1.4358383610        6.4416008070       -8.3632925476
  O         2.2781631225        5.0765741776       -7.0406464416
  O         1.5312594653        4.4833217313       -9.0175500220
  C         9.4768815789        2.6096274718        3.8999999032
  H         9.6131090334        3.4671477718        4.5843902861
  O         8.5279648529        2.7173503641        3.0491564755
  O        10.1885170196        1.5401264416        4.0330634701
  C         6.6326598626        7.0383042060        3.3282033620
  H         7.5082674956        7.1289998248        4.0070788575
  O         6.4944638046        6.1603922360        2.4465495647
  O         5.7954499616        7.9029929410        3.5812529557
  C         4.7447674398        5.8524826925        6.9353978965
  H         5.7085862008        5.7040540943        7.4370666698
  O         4.3285669454        4.9885378106        6.0815171513
  O         4.1456091558        6.9223920908        7.1371303042
  C         7.5603376138        1.7452809870        7.1878825303
  H         8.1158840311        2.6116602203        7.6593692779
  O         6.7458404537        2.0302369111        6.2244427078
  O         7.8434892302        0.5821315631        7.5895007106
     227
 i =        2, time =        2.000, E =       -11.6323000018
 Cd        -8.6170045865        0.4783220675        3.4767420792
 Cd        -5.8707065225       -0.2576803768        7.1136747333
 Cd        -8.4088715322       -2.1551426884        0.3836954578
 Cd        -6.8897171905       -3.2939578328        3.9621459344