     227
 i =        0, time =        0.000, E =       -17.3537855839
 Cd        -8.6216924880        0.4810107428        3.4775887729
 Cd        -5.8723589632       -0.2566559957        7.1151373767
 Cd        -8.4076147924       -2.1531404527        0.3867588804
 Cd        -6.8957642261       -3.2896665849        3.9600318291
 Cd        -3.6930098048       -3.6992689615        7.3819491709
 Cd        -6.4429261463       -6.2347087238        0.4622469067
 Cd        -4.3123952394       -6.8285875372        3.9039095072
 Cd        -6.1141073353        3.8626235599        2.9066844924
 Cd        -3.6048790416        2.8797284733        6.5917986711
 Cd        -6.7531255596        1.1841266196       -0.3182182747
 Cd        -4.0437606329        0.0729837467        3.0511954168
 Cd        -1.7753257667       -0.3121054857        6.8316599018
 Cd        -6.3661028473       -1.4630135273       -3.4383357626
 Cd        -4.3602814436       -3.1214810613       -0.1759283953
 Cd        -2.2424276819       -3.6242998489        3.6335413818
 Cd         0.1757294635       -3.9625201566        7.0364714760
 Cd        -4.2692200317       -5.9860442556       -3.0005266361
 Cd        -2.2482225396       -6.7972628816        0.6786391664
 Cd         0.0669003827       -7.3030327295        3.8545421700
 Cd        -4.0792754193        7.4105475565        2.4175118797
 Cd        -1.6116442377        6.4880648240        6.2478272306
 Cd        -4.3308002626        4.8127262164       -0.6762739309
 Cd        -1.8326132452        3.6694977750        3.1598212265
 Cd         0.4939817277        3.1637060931        6.7202662426
 Cd        -4.5980154021        1.9988297698       -4.0880170010
 Cd        -2.1651194586        1.0165564496       -0.4536921834
 Cd         0.1376109507       -0.0659106884        3.1336818174
 Cd         2.6419074521       -0.6636939286        6.8958319365
 Cd        -4.1515129292       -0.5348426091       -6.9620217917
 Cd        -2.2012490343       -1.8491984656       -3.4894107829
 Cd         0.0359311218       -2.8494155653       -0.0264680683
 Cd         2.4407298775       -3.8224684908        3.5289587884
 Cd         4.5907434619       -4.2169180472        6.5928471603
 Cd        -2.6321953796       -4.5685798778       -6.0773989300
 Cd        -0.3638438279       -6.1221236347       -3.0620735359
 Cd         1.9882729153       -6.8506852632       -0.0376753302
 Cd         4.3604701588       -7.5063202656        3.0981086138
 Cd        -2.4313710890        8.2839908015       -1.2010761441
 Cd         0.1210964618        6.7915494583        2.0748938605
 Cd         2.2602783261        6.3879934074        5.9824457591
 Cd        -2.2743307721        5.5403016700       -4.1096429978
 Cd         0.1552258413        4.6164378819       -0.9814446932
 Cd         2.6173372932        3.7540356816        2.4616712460
 Cd         4.3934694910        2.5024270436        5.6448470259
 Cd        -2.3839877703        3.0961459608       -7.5397423510
 Cd        -0.1308699873        1.7716472388       -4.3458913396
 Cd         2.1522040622        0.8595996928       -0.9600505658
 Cd         4.3027041934       -0.4425155449        2.5248589789
 Cd         6.4943132815       -0.6514444341        6.0110723312
 Cd         0.4032906214       -0.5920449882       -7.0625722312
 Cd         2.1504065746       -1.8410095193       -3.9631978812
 Cd         4.1282053355       -2.9764966895       -0.5499119195
 Cd         6.9189885741       -3.8001688729        2.8840486736
 Cd         1.0693858855       -4.7693596381       -6.7909688629
 Cd         3.6529341800       -5.7620820022       -3.6150795142
 Cd         5.7341856059       -6.5625995016       -0.3323817960
 Cd         2.4532379782        8.1225833618       -1.1556872380
 Cd         4.4025673150        7.2904811152        1.7928276254
 Cd         2.3800547108        5.2453457502       -4.8107637235
 Cd         4.8184663347        4.7191125514       -1.4277792117
 Cd         6.7589411702        3.8390778732        2.0295448973
 Cd         2.6210634084        2.7844913241       -7.7035228004
 Cd         4.8495943395        1.7843685348       -4.5225056138
 Cd         6.7261500983        1.0662237140       -0.9642295531
 Cd         8.8881450478        0.4141445330        2.4369093904
 Cd         4.3615782352       -0.9213178924       -7.7328888960
 Cd         6.7438649008       -1.9767569930       -4.2031112584
 Cd         8.5272445020       -2.6218905711       -0.2551455218
 Se        -9.0557725106        0.2424574140        0.9180313808
 Se        -6.3745872764       -0.6570220647        4.4225742627
 Se        -3.9358548519       -1.3506397678        8.2925868769
 Se        -6.5830028390       -3.7408669090        1.3890860046
 Se        -4.5802302415       -4.2716541219        4.8585926421
 Se        -4.6110671623       -7.7792240778        1.5343213278
 Se        -6.6407812351        3.9866809498        0.4586064126
 Se        -4.0705866514        2.6241591830        3.9150270775
 Se        -1.6315747320        2.0143859544        7.9219454430
 Se        -6.7106235468        0.9827493806       -3.1628202938
 Se        -4.4077684895       -0.2106461950        0.3970531668
 Se        -2.0534879979       -1.1190641497        4.2604482105
 Se         0.4069246601       -1.5676855049        8.0617057342
 Se        -4.4126107232       -3.1307459794       -2.8028288282
 Se        -2.2371864822       -4.0884616040        0.9473336128
 Se         0.1541797359       -4.8148952714        4.4843326207
 Se        -2.4147106009       -7.4199706225       -2.0529393442
 Se        -0.0662571417       -7.8800811154        1.3078284855
 Se        -4.5519687636        7.5920037884       -0.0122560791
 Se        -1.8482840651        6.3647212661        3.5390459072
 Se         0.4006735392        5.8241498358        7.5878867146
 Se        -4.4655945585        4.5529209660       -3.3484418515
 Se        -2.0798083538        3.7153034916        0.3451575142
 Se         0.4973892782        2.6967113851        3.7286137790
 Se         2.7724753484        1.9958260876        7.6298945277
 Se        -4.6126224962        2.0736182894       -6.9031574659
 Se        -2.2770211290        0.8531533747       -3.1284312065
 Se         0.0138865169       -0.1636477002        0.3858468104
 Se         2.3115473387       -1.3198431962        4.0017354986
 Se         4.8624545925       -1.8855864388        7.7371297607
 Se        -2.0700877949       -1.9675257511       -6.4603372509
 Se        -0.0447057629       -3.1582708631       -2.8090856920
 Se         2.2343306950       -4.2299664240        0.7817840723
 Se         4.8342987615       -4.9516929708        4.0974643468
 Se        -0.7556003326       -6.2829108386       -5.8406699955
 Se         1.9243057511       -7.4784768035       -2.6074198353
 Se         4.2543989663       -8.3809591814        0.7363809319
 Se         0.0386925703        7.3677075300       -0.4939635450
 Se         2.3791568525        6.5289221229        3.1400383851
 Se         0.0465974103        4.4270318221       -3.5936563407
 Se         2.5167269427        3.6273521599       -0.0581806204
 Se         4.7705604635        2.4670139639        3.1233546104
 Se         0.0435933033        1.9323944164       -6.9695738842
 Se         2.2733127965        0.7623703678       -3.6584263160
 Se         4.3816175435       -0.2841549253       -0.0177063702
 Se         6.9670500347       -1.1290204494        3.5565582379
 Se         2.2410869402       -2.2702007814       -6.6798205275
 Se         4.3723294721       -3.1971869108       -3.2130677403
 Se         6.4331938555       -4.1098532443        0.4136420186
 Se         4.8503033307        7.5509093293       -0.7463548497
 Se         4.8776288797        4.5477652435       -4.0091414448
 Se         7.0830986217        3.5950723552       -0.6434567968
 Se         4.7810064642        1.5273410534       -7.5566303287
 Se         6.9188050062        0.6130038217       -3.7081238627
 Se         9.1066871843       -0.0609359671       -0.0919647969
  C         6.9955771113       -6.9586634775       -2.8583426301
  H         7.7780160969       -7.1271873265       -3.6573399650
  O         5.8389952916       -6.4652991204       -3.1445809228
  O         7.2920676004       -7.2683568805       -1.6893132711
  C         3.3939431960       -6.2668607509       -6.9513074648
  H         4.3245440932       -6.8689211647       -7.0591687882
  O         3.0202466073       -5.7860511295       -5.7843136273
  O         2.6220129789       -6.1746538788       -7.9242101403
  C         6.3116555909       -2.9071154185       -7.4921130606
  H         7.0978863851       -3.7212906458       -7.4285512081
  O         6.0096715894       -2.3219711192       -6.3505932827
  O         5.9403243477       -2.4750431756       -8.6116316973
  C         8.9837561036       -3.3697375837       -3.4349055328
  H         9.9249943929       -3.8864043165       -3.1840078659
  O         8.5659407989       -3.4209184445       -4.6048832464
  O         8.2714489672       -2.6971151254       -2.5207012617
  C         9.7902109758       -4.6282247391        2.1768529346
  H        10.6284324694       -5.3337138149        2.3552924638
  O         9.7484501532       -4.1824896055        0.9942458601
  O         9.0219926648       -4.5705851174        3.1873629795
  C        -2.8252708508       -8.8894178348        5.3653894160
  H        -2.3915771747       -9.8892286280        5.4446685031
  O        -1.9808601030       -7.9304545651        5.0436955975
  O        -4.0908415257       -8.7280019527        5.4030844137
  C         3.0047406823       -8.6887063298        5.2919739424
  H         2.6853413808       -9.0312323512        6.2714246943
  O         1.9985977812       -8.3553887881        4.5599054594
  O         4.2197147413       -8.6069092298        4.9235206312
  C         2.8732291572       -5.7090624943        8.2322507888
  H         2.4095730423       -6.3582442170        8.9295273658
  O         2.2236878889       -4.8031284854        7.6183804854
  O         4.1525405945       -5.8988692439        8.1468427445
  C        -2.5324052264       -5.9090323801        8.5168983878
  H        -2.0058427467       -6.7599986745        9.0204193621
  O        -1.9189018681       -5.2527647032        7.5983339134
  O        -3.6521974131       -5.4981014961        8.8936623702
  C        -6.8661340661        2.3082426882        7.3884767521
  H        -7.2433530482        3.2983326111        7.3747512577
  O        -5.6189307919        2.1553364867        7.5292857639
  O        -7.6694328727        1.3672322100        7.2032576312
  C        -4.1128935570        6.2776012356        7.2258109093
  H        -5.2184092536        6.2949225170        7.4003980339
  O        -3.5215502414        5.2331222329        6.7794929280
  O        -3.5956064510        7.4679880815        7.3184340370
  C        -6.2584500423        7.1467273309        4.0778865765
  H        -7.2018864753        7.1620259062        4.6862261037
  O        -5.8042352338        6.0508881806        3.6277903665
  O        -5.6141473350        8.2227071687        3.8530055117
  C        -9.2670155991        2.9624473135        4.4549609073
  H        -9.7760873251        3.8307467380        4.7753730710
  O        -8.0580447847        3.0137717908        4.1153681461
  O       -10.0869615960        1.9755230626        4.3964141791
  C        -9.5997958208       -3.5202239981        4.2555074891
  H       -10.6284324694       -3.6062117458        4.7363993397
  O        -9.3836198173       -2.7271085544        3.2939504316
  O        -8.6749593009       -4.3055307223        4.7674147240
  C        -5.4063829718       -6.0836320759       -6.1576393485
  H        -6.0390997038       -6.5934387315       -6.8768176703
  O        -5.3157147411       -6.5042627408       -4.9638375967
  O        -4.7997118332       -5.0931497246       -6.6842330004
  C        -7.4812021438       -7.2683192216       -1.8337008205
  H        -7.8430239833       -7.7214409635       -2.7403108931
  O        -6.3847231004       -6.5596142310       -1.8855223803
  O        -8.0870004405       -7.4369608581       -0.7449951352
  C        -9.2637717352       -3.4248031045       -2.1287629167
  H        -9.5435102925       -4.0726156799       -2.9624854104
  O        -8.1685743898       -2.7562864935       -2.2769679175
  O        -9.8293124780       -3.4993302663       -1.0042472880
  C        -6.7198117275       -1.5155721631       -7.0057360974
  H        -7.7266400310       -1.9701098143       -7.1795729881
  O        -6.3208037730       -1.2812141421       -5.7891801227
  O        -6.0546670581       -1.2647410752       -8.0219575549
  C        -1.9610306020        5.6962737072       -7.4797868569
  H        -1.8068881661        6.7616764611       -7.4798700689
  O        -2.4613788677        5.1953402046       -6.4147373301
  O        -1.7592038190        5.0404242691       -8.5376948407
  C        -1.7153677193        9.0065729983       -3.7807068554
  H        -1.3518565997        9.2891789052       -4.8285272378
  O        -1.7735635219        7.7204009534       -3.5311974415
  O        -1.9589811591        9.8892286280       -2.9296575010
  C         2.5176986766        8.6527359013       -4.1276241396
  H         2.7356319561        9.0838176512       -5.0545617483
  O         2.0941304229        7.4607563111       -4.0382054964
  O         2.6632020791        9.4136986823       -3.1567247192
  C         1.7405814703        5.3615037054       -8.2026998584
  H         1.4592813282        6.4433815072       -8.3446733349
  O         2.2712544771        5.0744229803       -7.0359036782
  O         1.5374971892        4.4786315137       -9.0204193621
  C         9.4791869119        2.6134878200        3.9079418032
  H         9.6264681644        3.4611325178        4.5867541287
  O         8.5294682966        2.7206869475        3.0468687327
  O        10.1884170796        1.5361363159        4.0354546634
  C         6.6320899766        7.0427804887        3.3240585285
  H         7.5183451153        7.1103565644        4.0025867163
  O         6.4921259472        6.1579139584        2.4473334656
  O         5.8014508194        7.8970951585        3.5804466065
  C         4.7468288793        5.8510846562        6.9391041765
  H         5.6837062732        5.7110173508        7.4566454645
  O         4.3315486404        4.9881730889        6.0840680113
  O         4.1390624477        6.9214380767        7.1338855679
  C         7.5642974957        1.7429307679        7.1823006621
  H         8.1116275708        2.6102062210        7.6466333920
  O         6.7423080014        2.0330978891        6.2208765696
  O         7.8434776238        0.5800715711        7.5931108165
     227
 i =        1, time =        1.000, E =       -17.3633322680
 Cd        -8.6193478155        0.4796557552        3.4771603994
 Cd        -5.8715176450       -0.2571895676        7.1144087189
 Cd        -8.4082288420       -2.1541275558        0.3852384820
 Cd        -6.8927420196       -3.2918173056        3.9610932206
 Cd        -3.6901776223       -3.7003853234        7.3824006710
 Cd        -6.4419757303       -6.2357682497        0.4642650786
 Cd        -4.3123541584       -6.8296373048        3.9052077659
 Cd        -6.1163835384        3.8609347210        2.9055487291
 Cd        -3.6066165665        2.8812282085        6.5904274932
 Cd        -6.7534367233        1.1872384855       -0.3192254299
 Cd        -4.0444217764        0.0755191571        3.0501920777
 Cd        -1.7741842660       -0.3125628759        6.8336020985
 Cd        -6.3661001868       -1.4624072248       -3.4401782744
 Cd        -4.3613426668       -3.1217913991       -0.1745553323
 Cd        -2.2426159902       -3.6215561973        3.6336154927
 Cd         0.1787212109       -3.9615877095        7.0369444419
 Cd        -4.2693714568       -5.9882554122       -2.9988672545
 Cd        -2.2486884600       -6.7966442894        0.6791677602
 Cd         0.0677953420       -7.3029883826        3.8542276102
 Cd        -4.0803206050        7.4119357038        2.4182520150
 Cd        -1.6107810945        6.4879158841        6.2509867508
 Cd        -4.3325453936        4.8128065530       -0.6769594925
 Cd        -1.8304023147        3.6695921884        3.1589491655
 Cd         0.4898054856        3.1633338097        6.7205567582
 Cd        -4.5996603647        2.0001161784       -4.0890008928
 Cd        -2.1628964498        1.0181195647       -0.4517601427
 Cd         0.1384341399       -0.0681776988        3.1344229785
 Cd         2.6424418798       -0.6635637165        6.8959296823
 Cd        -4.1540943755       -0.5351552078       -6.9611330179
 Cd        -2.2031817472       -1.8491087457       -3.4900224730
 Cd         0.0358084231       -2.8474958243       -0.0250990847
 Cd         2.4397080918       -3.8215438547        3.5304721622
 Cd         4.5938333967       -4.2152006006        6.5946901931
 Cd        -2.6316907953       -4.5699930372       -6.0785541986
 Cd        -0.3609705651       -6.1210902604       -3.0631355299
 Cd         1.9863982732       -6.8523637941       -0.0374672252
 Cd         4.3578621976       -7.5050787259        3.0974148341
 Cd        -2.4320660040        8.2867242874       -1.2003641245
 Cd         0.1211453769        6.7911422856        2.0748090373
 Cd         2.2581101344        6.3879321388        5.9826798900
 Cd        -2.2740490174        5.5405429398       -4.1121282491
 Cd         0.1544582171        4.6148703678       -0.9823572139
 Cd         2.6165316877        3.7533418367        2.4610119933
 Cd         4.3939302647        2.5015373950        5.6446941028
 Cd        -2.3864923486        3.0937385490       -7.5398875188
 Cd        -0.1312647743        1.7709318460       -4.3474265828
 Cd         2.1531867834        0.8600198359       -0.9632084036
 Cd         4.3034703949       -0.4402553560        2.5247955457
 Cd         6.4920379803       -0.6517785583        6.0104872771
 Cd         0.4042733751       -0.5927792238       -7.0621278947
 Cd         2.1513277563       -1.8410961189       -3.9633395061
 Cd         4.1299865673       -2.9780282615       -0.5482359350
 Cd         6.9198274109       -3.7969849983        2.8855139927
 Cd         1.0695697369       -4.7692301392       -6.7906629643
 Cd         3.6506370064       -5.7625273716       -3.6177320441
 Cd         5.7329863402       -6.5640421793       -0.3327918253
 Cd         2.4551376622        8.1222958358       -1.1566326346
 Cd         4.4053600081        7.2897884926        1.7948384224
 Cd         2.3804087716        5.2452254353       -4.8087357953
 Cd         4.8190033298        4.7184556998       -1.4284286761
 Cd         6.7582409406        3.8401487676        2.0311464581
 Cd         2.6218136969        2.7829153225       -7.7033799468
 Cd         4.8493772649        1.7846647372       -4.5231216368
 Cd         6.7277394566        1.0650333277       -0.9631193909
 Cd         8.8867447312        0.4155874576        2.4347893719
 Cd         4.3618252862       -0.9226039490       -7.7309136503
 Cd         6.7427900032       -1.9756215955       -4.2012751874
 Cd         8.5291308516       -2.6208070817       -0.2528065046
 Se        -9.0547195737        0.2428356265        0.9183364133
 Se        -6.3727448034       -0.6565060485        4.4182958686
 Se        -3.9345528889       -1.3489665689        8.2964529639
 Se        -6.5831088329       -3.7425275252        1.3880812094
 Se        -4.5790595349       -4.2748284076        4.8597105294
 Se        -4.6122225262       -7.7765091337        1.5328600011
 Se        -6.6422066905        3.9855448924        0.4577408022
 Se        -4.0719300981        2.6208460464        3.9142678636
 Se        -1.6333400360        2.0117216770        7.9250307666
 Se        -6.7115981135        0.9828554083       -3.1654605256
 Se        -4.4070452846       -0.2111800746        0.3949088496
 Se        -2.0531362823       -1.1153546365        4.2593618148
 Se         0.4060026817       -1.5661720230        8.0650135076
 Se        -4.4160429670       -3.1299566686       -2.8046419443
 Se        -2.2374556559       -4.0915755516        0.9472023437
 Se         0.1530685273       -4.8127498036        4.4857802134
 Se        -2.4165720298       -7.4205325456       -2.0539621518
 Se        -0.0669793450       -7.8790590048        1.3095495457
 Se        -4.5520434360        7.5948245725       -0.0125603195
 Se        -1.8467038660        6.3632891543        3.5400304759
 Se         0.4036935693        5.8261716698        7.5857761956
 Se        -4.4659651851        4.5539420750       -3.3489407009
 Se        -2.0809707145        3.7152498325        0.3431684755
 Se         0.4982027027        2.6970203510        3.7286519330
 Se         2.7717844895        1.9958544096        7.6261327280
 Se        -4.6131017919        2.0747425909       -6.9048971317
 Se        -2.2788645940        0.8535079417       -3.1260963050
 Se         0.0145449714       -0.1632225989        0.3853921426
 Se         2.3129743513       -1.3189422099        3.9989704360
 Se         4.8631373298       -1.8843117331        7.7353313189
 Se        -2.0702293411       -1.9664059189       -6.4603613497
 Se        -0.0447450886       -3.1598962180       -2.8087857708
 Se         2.2323280214       -4.2314312346        0.7809271798
 Se         4.8362275296       -4.9530576629        4.0967193292
 Se        -0.7551507762       -6.2847297761       -5.8413903695
 Se         1.9250037984       -7.4789678450       -2.6075945508
 Se         4.2593759250       -8.3791016864        0.7364399582
 Se         0.0356656791        7.3685909195       -0.4912845922
 Se         2.3808808495        6.5252174050        3.1424186706
 Se         0.0437077029        4.4288031848       -3.5939748503
 Se         2.5163641640        3.6274465495       -0.0567934724
 Se         4.7726604439        2.4662003261        3.1253395852
 Se         0.0455219041        1.9298925611       -6.9704566653
 Se         2.2757898625        0.7648095900       -3.6570461281
 Se         4.3766184747       -0.2853745011       -0.0177644948
 Se         6.9676909912       -1.1294414018        3.5582656315
 Se         2.2369338349       -2.2681192937       -6.6837534735
 Se         4.3736831704       -3.1974775719       -3.2156256335
 Se         6.4331223606       -4.1116728960        0.4130195348
 Se         4.8514511268        7.5524065313       -0.7458693890
 Se         4.8774353259        4.5489589133       -4.0121836167
 Se         7.0855270972        3.5934200030       -0.6428745983
 Se         4.7816044111        1.5263849131       -7.5555418788
 Se         6.9184762952        0.6112255671       -3.7073562461
 Se         9.1068223313       -0.0627210629       -0.0922780804
  C         6.9966710328       -6.9498000364       -2.8612714051
  H         7.7649322095       -7.1224747738       -3.6684216540
  O         5.8438735826       -6.4671950135       -3.1400604931
  O         7.2883250638       -7.2740248274       -1.6934420681
  C         3.3950836019       -6.2672843084       -6.9491593592
  H         4.3444066225       -6.8936096686       -7.0753272229
  O         3.0187994340       -5.7908121500       -5.7818490140
  O         2.6176223884       -6.1688064144       -7.9239125430
  C         6.3106271713       -2.9078640739       -7.4910106515
  H         7.1299137504       -3.7048862282       -7.4466889051
  O         6.0085431370       -2.3181216503       -6.3473382725
  O         5.9392519390       -2.4741469189       -8.6124004352
  C         8.9774161980       -3.3708888107       -3.4296330745
  H         9.9250180562       -3.8774829974       -3.1826003730
  O         8.5681451167       -3.4147818837       -4.6045729895
  O         8.2716488213       -2.6966785144       -2.5199651113
  C         9.7980442501       -4.6251889746        2.1809860338
  H        10.6408655401       -5.3318691344        2.3887999993
  O         9.7470289862       -4.1803890682        0.9925458717
  O         9.0283838769       -4.5680398556        3.1870138827
  C        -2.8217190100       -8.8884064384        5.3598599405
  H        -2.4154187803       -9.9024293192        5.4343946394
  O        -1.9847068999       -7.9305891577        5.0422635615
  O        -4.0904565913       -8.7273175888        5.4043412526
  C         2.9969134790       -8.6915891002        5.2874318094
  H         2.6967725338       -9.0398269484        6.2934215078
  O         1.9992486070       -8.3577635025        4.5593656515
  O         4.2233782169       -8.6003982578        4.9152023186
  C         2.8792874705       -5.7053291697        8.2324019973
  H         2.3955873073       -6.3773024893        8.9303283437
  O         2.2188877801       -4.8087675461        7.6162455038
  O         4.1498486165       -5.9033598648        8.1534616380
  C        -2.5347054502       -5.9173516689        8.5219682965
  H        -2.0052498086       -6.7390725628        9.0096019785
  O        -1.9214447243       -5.2581985552        7.5983049569
  O        -3.6522387744       -5.5082880169        8.8926413633
  C        -6.8630614297        2.3027111368        7.3891630162
  H        -7.2086193538        3.3071349018        7.3885257928
  O        -5.6212005096        2.1590597236        7.5336074695
  O        -7.6694393458        1.3701860489        7.1999445633
  C        -4.1170068479        6.2827846261        7.2281613318
  H        -5.2418933127        6.2896177269        7.3832000201
  O        -3.5265645332        5.2289896324        6.7737719592
  O        -3.5909816583        7.4672711550        7.3179767907
  C        -6.2567282039        7.1462166831        4.0781038210
  H        -7.2111390447        7.1649409639        4.6689854642
  O        -5.8089879872        6.0477795277        3.6278084725
  O        -5.6125931016        8.2206168326        3.8485917449
  C        -9.2741871722        2.9617382566        4.4604873279
  H        -9.7855372140        3.8838940690        4.7760086716
  O        -8.0587459324        3.0118839748        4.1192275230
  O       -10.0809594885        1.9791378268        4.3921319441
  C        -9.6032571404       -3.5282074516        4.2551535924
  H       -10.5971720209       -3.6001750875        4.7566807035
  O        -9.3831970146       -2.7227731083        3.2942850260
  O        -8.6783972076       -4.3015577016        4.7628914170
  C        -5.4081387114       -6.0792121685       -6.1561713091
  H        -6.0546960796       -6.5859836395       -6.8890942905
  O        -5.3109260439       -6.5040069198       -4.9650546187
  O        -4.7982494272       -5.0926948236       -6.6852382085
  C        -7.4874797033       -7.2705383667       -1.8348000506
  H        -7.8388434959       -7.7173330376       -2.7530342297
  O        -6.3886744214       -6.5549187166       -1.8842054766
  O        -8.0715765711       -7.4408171088       -0.7457504021
  C        -9.2562464198       -3.4270101129       -2.1219656640
  H        -9.5270787848       -4.0663584857       -2.9594189931
  O        -8.1697637729       -2.7553591642       -2.2726797708
  O        -9.8241249397       -3.4938999788       -1.0091434109
  C        -6.7206972106       -1.5101650626       -7.0045778583
  H        -7.7450574417       -1.9674181007       -7.1698505571
  O        -6.3197317985       -1.2781474540       -5.7989378703
  O        -6.0631521494       -1.2634379364       -8.0154225536
  C        -1.9628854563        5.6954850644       -7.4852963658
  H        -1.7770888886        6.7764005651       -7.4923242406
  O        -2.4611308094        5.1866325906       -6.4086512277
  O        -1.7564536935        5.0402451524       -8.5282427961
  C        -1.7168715064        9.0074851424       -3.7839163297
  H        -1.3493405476        9.2660238074       -4.8465614694
  O        -1.7701289383        7.7193610790       -3.5245863507
  O        -1.9637749758        9.8894711029       -2.9407355490
  C         2.5062213789        8.6538668940       -4.1272910223
  H         2.7131102182        9.0638249498       -5.0476060874
  O         2.0944714152        7.4531362060       -4.0307293052
  O         2.6627156830        9.4110965752       -3.1551332519
  C         1.7411333820        5.3672400639       -8.1968472807
  H         1.4358383610        6.4416008070       -8.3632925476
  O         2.2781670360        5.0765012673       -7.0405389629
  O         1.5313207015        4.4832656409       -9.0174889567
  C         9.4768483781        2.6096236138        3.9000090042
  H         9.6131090334        3.4671477718        4.5843902861
  O         8.5279107616        2.7173193235        3.0491105633
  O        10.1884435536        1.5400753435        4.0329870832
  C         6.6326475569        7.0382790343        3.3282140564
  H         7.5082674956        7.1289998248        4.0070788575
  O         6.4943937500        6.1603296751        2.4465406945
  O         5.7953869192        7.9029499735        3.5811731606
  C         4.7447745503        5.8524715228        6.9353732998
  H         5.7085862008        5.7040540943        7.4370666698
  O         4.3285102325        4.9885220892        6.0814797418
  O         4.1455098166        6.9223553734        7.1370410280
  C         7.5603317199        1.7452822070        7.1878544596
  H         8.1158840311        2.6116602203        7.6593692779
  O         6.7457792468        2.0301948500        6.2244246436
  O         7.8434407477        0.5820942442        7.5894155464
     227
 i =        2, time =        2.000, E =       -17.3793813102
 Cd        -8.6170184090        0.4783714067        3.4767291748
 Cd        -5.8706921863       -0.2576333512        7.1136987156
 Cd        -8.4089188828       -2.1551468855        0.3836885939
 Cd        -6.8897407512       -3.2939692320        3.9621330311