     227
 i =        0, time =        0.000, E =       -35.0273011597
 Cd        -8.6216924880        0.4810107428        3.4775887729
 Cd        -5.8723589632       -0.2566559957        7.1151373767
 Cd        -8.4076147924       -2.1531404527        0.3867588804
 Cd        -6.8957642261       -3.2896665849        3.9600318291
 Cd        -3.6930098048       -3.6992689615        7.3819491709
 Cd        -6.4429261463       -6.2347087238        0.4622469067
 Cd        -4.3123952394       -6.8285875372        3.9039095072
 Cd        -6.1141073353        3.8626235599        2.9066844924
 Cd        -3.6048790416        2.8797284733        6.5917986711
 Cd        -6.7531255596        1.1841266196       -0.3182182747
 Cd        -4.0437606329        0.0729837467        3.0511954168
 Cd        -1.7753257667       -0.3121054857        6.8316599018
 Cd        -6.3661028473       -1.4630135273       -3.4383357626
 Cd        -4.3602814436       -3.1214810613       -0.1759283953
 Cd        -2.2424276819       -3.6242998489        3.6335413818
 Cd         0.1757294635       -3.9625201566        7.0364714760
 Cd        -4.2692200317       -5.9860442556       -3.0005266361
 Cd        -2.2482225396       -6.7972628816        0.6786391664
 Cd         0.0669003827       -7.3030327295        3.8545421700
 Cd        -4.0792754193        7.4105475565        2.4175118797
 Cd        -1.6116442377        6.4880648240        6.2478272306
 Cd        -4.3308002626        4.8127262164       -0.6762739309
 Cd        -1.8326132452        3.6694977750        3.1598212265
 Cd         0.4939817277        3.1637060931        6.7202662426
 Cd        -4.5980154021        1.9988297698       -4.0880170010
 Cd        -2.1651194586        1.0165564496       -0.4536921834
 Cd         0.1376109507       -0.0659106884        3.1336818174
 Cd         2.6419074521       -0.6636939286        6.8958319365
 Cd        -4.1515129292       -0.5348426091       -6.9620217917
 Cd        -2.2012490343       -1.8491984656       -3.4894107829
 Cd         0.0359311218       -2.8494155653       -0.0264680683
 Cd         2.4407298775       -3.8224684908        3.5289587884
 Cd         4.5907434619       -4.2169180472        6.5928471603
 Cd        -2.6321953796       -4.5685798778       -6.0773989300
 Cd        -0.3638438279       -6.1221236347       -3.0620735359
 Cd         1.9882729153       -6.8506852632       -0.0376753302
 Cd         4.3604701588       -7.5063202656        3.0981086138
 Cd        -2.4313710890        8.2839908015       -1.2010761441
 Cd         0.1210964618        6.7915494583        2.0748938605
 Cd         2.2602783261        6.3879934074        5.9824457591
 Cd        -2.2743307721        5.5403016700       -4.1096429978
 Cd         0.1552258413        4.6164378819       -0.9814446932
 Cd         2.6173372932        3.7540356816        2.4616712460
 Cd         4.3934694910        2.5024270436        5.6448470259
 Cd        -2.3839877703        3.0961459608       -7.5397423510
 Cd        -0.1308699873        1.7716472388       -4.3458913396
 Cd         2.1522040622        0.8595996928       -0.9600505658
 Cd         4.3027041934       -0.4425155449        2.5248589789
 Cd         6.4943132815       -0.6514444341        6.0110723312
 Cd         0.4032906214       -0.5920449882       -7.0625722312
 Cd         2.1504065746       -1.8410095193       -3.9631978812
 Cd         4.1282053355       -2.9764966895       -0.5499119195
 Cd         6.9189885741       -3.8001688729        2.8840486736
 Cd         1.0693858855       -4.7693596381       -6.7909688629
 Cd         3.6529341800       -5.7620820022       -3.6150795142
 Cd         5.7341856059       -6.5625995016       -0.3323817960
 Cd         2.4532379782        8.1225833618       -1.1556872380
 Cd         4.4025673150        7.2904811152        1.7928276254
 Cd         2.3800547108        5.2453457502       -4.8107637235
 Cd         4.8184663347        4.7191125514       -1.4277792117
 Cd         6.7589411702        3.8390778732        2.0295448973
 Cd         2.6210634084        2.7844913241       -7.7035228004
 Cd         4.8495943395        1.7843685348       -4.5225056138
 Cd         6.7261500983        1.0662237140       -0.9642295531
 Cd         8.8881450478        0.4141445330        2.4369093904
 Cd         4.3615782352       -0.9213178924       -7.7328888960
 Cd         6.7438649008       -1.9767569930       -4.2031112584
 Cd         8.5272445020       -2.6218905711       -0.2551455218
 Se        -9.0557725106        0.2424574140        0.9180313808
 Se        -6.3745872764       -0.6570220647        4.4225742627
 Se        -3.9358548519       -1.3506397678        8.2925868769
 Se        -6.5830028390       -3.7408669090        1.3890860046
 Se        -4.5802302415       -4.2716541219        4.8585926421
 Se        -4.6110671623       -7.7792240778        1.5343213278
 Se        -6.6407812351        3.9866809498        0.4586064126
 Se        -4.0705866514        2.6241591830        3.9150270775
 Se        -1.6315747320        2.0143859544        7.9219454430
 Se        -6.7106235468        0.9827493806       -3.1628202938
 Se        -4.4077684895       -0.2106461950        0.3970531668
 Se        -2.0534879979       -1.1190641497        4.2604482105
 Se         0.4069246601       -1.5676855049        8.0617057342
 Se        -4.4126107232       -3.1307459794       -2.8028288282
 Se        -2.2371864822       -4.0884616040        0.9473336128
 Se         0.1541797359       -4.8148952714        4.4843326207
 Se        -2.4147106009       -7.4199706225       -2.0529393442
 Se        -0.0662571417       -7.8800811154        1.3078284855
 Se        -4.5519687636        7.5920037884       -0.0122560791
 Se        -1.8482840651        6.3647212661        3.5390459072
 Se         0.4006735392        5.8241498358        7.5878867146
 Se        -4.4655945585        4.5529209660       -3.3484418515
 Se        -2.0798083538        3.7153034916        0.3451575142
 Se         0.4973892782        2.6967113851        3.7286137790
 Se         2.7724753484        1.9958260876        7.6298945277
 Se        -4.6126224962        2.0736182894       -6.9031574659
 Se        -2.2770211290        0.8531533747       -3.1284312065
 Se         0.0138865169       -0.1636477002        0.3858468104
 Se         2.3115473387       -1.3198431962        4.0017354986
 Se         4.8624545925       -1.8855864388        7.7371297607
 Se        -2.0700877949       -1.9675257511       -6.4603372509
 Se        -0.0447057629       -3.1582708631       -2.8090856920
 Se         2.2343306950       -4.2299664240        0.7817840723
 Se         4.8342987615       -4.9516929708        4.0974643468
 Se        -0.7556003326       -6.2829108386       -5.8406699955
 Se         1.9243057511       -7.4784768035       -2.6074198353
 Se         4.2543989663       -8.3809591814        0.7363809319
 Se         0.0386925703        7.3677075300       -0.4939635450
 Se         2.3791568525        6.5289221229        3.1400383851
 Se         0.0465974103        4.4270318221       -3.5936563407
 Se         2.5167269427        3.6273521599       -0.0581806204
 Se         4.7705604635        2.4670139639        3.1233546104
 Se         0.0435933033        1.9323944164       -6.9695738842
 Se         2.2733127965        0.7623703678       -3.6584263160
 Se         4.3816175435       -0.2841549253       -0.0177063702
 Se         6.9670500347       -1.1290204494        3.5565582379
 Se         2.2410869402       -2.2702007814       -6.6798205275
 Se         4.3723294721       -3.1971869108       -3.2130677403
 Se         6.4331938555       -4.1098532443        0.4136420186
 Se         4.8503033307        7.5509093293       -0.7463548497
 Se         4.8776288797        4.5477652435       -4.0091414448
 Se         7.0830986217        3.5950723552       -0.6434567968
 Se         4.7810064642        1.5273410534       -7.5566303287
 Se         6.9188050062        0.6130038217       -3.7081238627
 Se         9.1066871843       -0.0609359671       -0.0919647969
  C         6.9955771113       -6.9586634775       -2.8583426301
  H         7.7780160969       -7.1271873265       -3.6573399650
  O         5.8389952916       -6.4652991204       -3.1445809228
  O         7.2920676004       -7.2683568805       -1.6893132711
  C         3.3939431960       -6.2668607509       -6.9513074648
  H         4.3245440932       -6.8689211647       -7.0591687882
  O         3.0202466073       -5.7860511295       -5.7843136273
  O         2.6220129789       -6.1746538788       -7.9242101403
  C         6.3116555909       -2.9071154185       -7.4921130606
  H         7.0978863851       -3.7212906458       -7.4285512081
  O         6.0096715894       -2.3219711192       -6.3505932827
  O         5.9403243477       -2.4750431756       -8.6116316973
  C         8.9837561036       -3.3697375837       -3.4349055328
  H         9.9249943929       -3.8864043165       -3.1840078659
  O         8.5659407989       -3.4209184445       -4.6048832464
  O         8.2714489672       -2.6971151254       -2.5207012617
  C         9.7902109758       -4.6282247391        2.1768529346
  H        10.6284324694       -5.3337138149        2.3552924638
  O         9.7484501532       -4.1824896055        0.9942458601
  O         9.0219926648       -4.5705851174        3.1873629795
  C        -2.8252708508       -8.8894178348        5.3653894160
  H        -2.3915771747       -9.8892286280        5.4446685031
  O        -1.9808601030       -7.9304545651        5.0436955975
  O        -4.0908415257       -8.7280019527        5.4030844137
  C         3.0047406823       -8.6887063298        5.2919739424
  H         2.6853413808       -9.0312323512        6.2714246943
  O         1.9985977812       -8.3553887881        4.5599054594
  O         4.2197147413       -8.6069092298        4.9235206312
  C         2.8732291572       -5.7090624943        8.2322507888
  H         2.4095730423       -6.3582442170        8.9295273658
  O         2.2236878889       -4.8031284854        7.6183804854
  O         4.1525405945       -5.8988692439        8.1468427445
  C        -2.5324052264       -5.9090323801        8.5168983878
  H        -2.0058427467       -6.7599986745        9.0204193621
  O        -1.9189018681       -5.2527647032        7.5983339134
  O        -3.6521974131       -5.4981014961        8.8936623702
  C        -6.8661340661        2.3082426882        7.3884767521
  H        -7.2433530482        3.2983326111        7.3747512577
  O        -5.6189307919        2.1553364867        7.5292857639
  O        -7.6694328727        1.3672322100        7.2032576312
  C        -4.1128935570        6.2776012356        7.2258109093
  H        -5.2184092536        6.2949225170        7.4003980339
  O        -3.5215502414        5.2331222329        6.7794929280
  O        -3.5956064510        7.4679880815        7.3184340370
  C        -6.2584500423        7.1467273309        4.0778865765
  H        -7.2018864753        7.1620259062        4.6862261037
  O        -5.8042352338        6.0508881806        3.6277903665
  O        -5.6141473350        8.2227071687        3.8530055117
  C        -9.2670155991        2.9624473135        4.4549609073
  H        -9.7760873251        3.8307467380        4.7753730710
  O        -8.0580447847        3.0137717908        4.1153681461
  O       -10.0869615960        1.9755230626        4.3964141791
  C        -9.5997958208       -3.5202239981        4.2555074891
  H       -10.6284324694       -3.6062117458        4.7363993397
  O        -9.3836198173       -2.7271085544        3.2939504316
  O        -8.6749593009       -4.3055307223        4.7674147240
  C        -5.4063829718       -6.0836320759       -6.1576393485
  H        -6.0390997038       -6.5934387315       -6.8768176703
  O        -5.3157147411       -6.5042627408       -4.9638375967
  O        -4.7997118332       -5.0931497246       -6.6842330004
  C        -7.4812021438       -7.2683192216       -1.8337008205
  H        -7.8430239833       -7.7214409635       -2.7403108931
  O        -6.3847231004       -6.5596142310       -1.8855223803
  O        -8.0870004405       -7.4369608581       -0.7449951352
  C        -9.2637717352       -3.4248031045       -2.1287629167
  H        -9.5435102925       -4.0726156799       -2.9624854104
  O        -8.1685743898       -2.7562864935       -2.2769679175
  O        -9.8293124780       -3.4993302663       -1.0042472880
  C        -6.7198117275       -1.5155721631       -7.0057360974
  H        -7.7266400310       -1.9701098143       -7.1795729881
  O        -6.3208037730       -1.2812141421       -5.7891801227
  O        -6.0546670581       -1.2647410752       -8.0219575549
  C        -1.9610306020        5.6962737072       -7.4797868569
  H        -1.8068881661        6.7616764611       -7.4798700689
  O        -2.4613788677        5.1953402046       -6.4147373301
  O        -1.7592038190        5.0404242691       -8.5376948407
  C        -1.7153677193        9.0065729983       -3.7807068554
  H        -1.3518565997        9.2891789052       -4.8285272378
  O        -1.7735635219        7.7204009534       -3.5311974415
  O        -1.9589811591        9.8892286280       -2.9296575010
  C         2.5176986766        8.6527359013       -4.1276241396
  H         2.7356319561        9.0838176512       -5.0545617483
  O         2.0941304229        7.4607563111       -4.0382054964
  O         2.6632020791        9.4136986823       -3.1567247192
  C         1.7405814703        5.3615037054       -8.2026998584
  H         1.4592813282        6.4433815072       -8.3446733349
  O         2.2712544771        5.0744229803       -7.0359036782
  O         1.5374971892        4.4786315137       -9.0204193621
  C         9.4791869119        2.6134878200        3.9079418032
  H         9.6264681644        3.4611325178        4.5867541287
  O         8.5294682966        2.7206869475        3.0468687327
  O        10.1884170796        1.5361363159        4.0354546634
  C         6.6320899766        7.0427804887        3.3240585285
  H         7.5183451153        7.1103565644        4.0025867163
  O         6.4921259472        6.1579139584        2.4473334656
  O         5.8014508194        7.8970951585        3.5804466065
  C         4.7468288793        5.8510846562        6.9391041765
  H         5.6837062732        5.7110173508        7.4566454645
  O         4.3315486404        4.9881730889        6.0840680113
  O         4.1390624477        6.9214380767        7.1338855679
  C         7.5642974957        1.7429307679        7.1823006621
  H         8.1116275708        2.6102062210        7.6466333920
  O         6.7423080014        2.0330978891        6.2208765696
  O         7.8434776238        0.5800715711        7.5931108165
     227
 i =        1, time =        1.000, E =       -35.0399257403
 Cd        -8.6193570124        0.4796911368        3.4771565964
 Cd        -5.8715207520       -0.2571485140        7.1144218014
 Cd        -8.4082676019       -2.1541392202        0.3852274642
 Cd        -6.8927569596       -3.2918179760        3.9610862615
 Cd        -3.6901767435       -3.7004120254        7.3824494450
 Cd        -6.4419987390       -6.2358045503        0.4642298541
 Cd        -4.3123512411       -6.8296861718        3.9052215323
 Cd        -6.1164162564        3.8609518498        2.9055597826
 Cd        -3.6066455333        2.8812459624        6.5904776152
 Cd        -6.7534708093        1.1872604471       -0.3192396514
 Cd        -4.0444666854        0.0755235099        3.0502160471
 Cd        -1.7741713719       -0.3125629004        6.8336791598
 Cd        -6.3661416025       -1.4623936174       -3.4402004418
 Cd        -4.3613554419       -3.1217918100       -0.1745468355
 Cd        -2.2426291115       -3.6215532800        3.6336382188
 Cd         0.1787445578       -3.9615986980        7.0369783866
 Cd        -4.2694135998       -5.9883086749       -2.9988810937
 Cd        -2.2486802534       -6.7966949609        0.6791416527
 Cd         0.0678029508       -7.3030171564        3.8542373415
 Cd        -4.0803890959        7.4119313260        2.4182616200
 Cd        -1.6108224726        6.4879041710        6.2510367325
 Cd        -4.3326039240        4.8128182953       -0.6769877136
 Cd        -1.8304309708        3.6696056958        3.1589520848
 Cd         0.4898096376        3.1633078944        6.7206305739
 Cd        -4.5997253350        2.0001543859       -4.0890068464
 Cd        -2.1629314832        1.0181277130       -0.4517811910
 Cd         0.1384468987       -0.0681865596        3.1344571942
 Cd         2.6424321682       -0.6635630847        6.8960098912
 Cd        -4.1541646468       -0.5351600801       -6.9611435718
 Cd        -2.2032032535       -1.8491169047       -3.4900279900
 Cd         0.0358082075       -2.8475454135       -0.0251050008
 Cd         2.4397048475       -3.8215520435        3.5304815045
 Cd         4.5938142463       -4.2152257179        6.5947375035
 Cd        -2.6317180196       -4.5700257134       -6.0785826211
 Cd        -0.3609689249       -6.1211680844       -3.0631589117
 Cd         1.9863868199       -6.8524241586       -0.0374781499
 Cd         4.3578413874       -7.5051274391        3.0974436607
 Cd        -2.4320713251        8.2867300667       -1.2004192566
 Cd         0.1211456779        6.7911598253        2.0748288293
 Cd         2.2581711066        6.3879238888        5.9827464082
 Cd        -2.2740625560        5.5405585542       -4.1121604153
 Cd         0.1544524394        4.6148953682       -0.9823967503
 Cd         2.6165522030        3.7533275342        2.4609985800
 Cd         4.3939722629        2.5015744231        5.6447171322
 Cd        -2.3865147809        3.0938073532       -7.5398779898
 Cd        -0.1312664569        1.7709766046       -4.3474456463
 Cd         2.1532397067        0.8600283959       -0.9632295255
 Cd         4.3035021184       -0.4402366929        2.5247775704
 Cd         6.4920790649       -0.6517500338        6.0105127597
 Cd         0.4042798524       -0.5927845973       -7.0621296447
 Cd         2.1513736062       -1.8411154267       -3.9633645795
 Cd         4.1300366977       -2.9780424050       -0.5482514472
 Cd         6.9198507319       -3.7969934803        2.8854940703
 Cd         1.0696369881       -4.7692951767       -6.7906483388
 Cd         3.6506790723       -5.7625630224       -3.6177695780
 Cd         5.7330371835       -6.5640789342       -0.3328372731
 Cd         2.4551601452        8.1223042429       -1.1567095375
 Cd         4.4054220587        7.2897842069        1.7948690760
 Cd         2.3804188137        5.2452772756       -4.8087574130
 Cd         4.8190565606        4.7184714761       -1.4284714555
 Cd         6.7582786984        3.8401549781        2.0311586141
 Cd         2.6218234189        2.7829699025       -7.7033901237
 Cd         4.8494416504        1.7846752884       -4.5231154441
 Cd         6.7278006063        1.0650564171       -0.9631557013
 Cd         8.8867565053        0.4156208846        2.4347885344
 Cd         4.3618943553       -0.9226222037       -7.7308920589
 Cd         6.7428304857       -1.9756449065       -4.2012846788
 Cd         8.5291416651       -2.6208215076       -0.2528470818
 Se        -9.0545982154        0.2427600752        0.9183656109
 Se        -6.3727118155       -0.6565441868        4.4182793496
 Se        -3.9345791672       -1.3490153658        8.2963212368
 Se        -6.5830771544       -3.7425245900        1.3880680142
 Se        -4.5790063030       -4.2748317423        4.8596844859
 Se        -4.6122059231       -7.7763589696        1.5328988670
 Se        -6.6420872840        3.9854924835        0.4577802777
 Se        -4.0718494560        2.6208384078        3.9142274033
 Se        -1.6333576700        2.0117074618        7.9248418297
 Se        -6.7114758490        0.9827842830       -3.1654285854
 Se        -4.4069964284       -0.2111675961        0.3949434750
 Se        -2.0531165402       -1.1153500440        4.2593164698
 Se         0.4060006292       -1.5662207166        8.0648786077
 Se        -4.4159765581       -3.1299091229       -2.8046018535
 Se        -2.2374560365       -4.0915423925        0.9471979838
 Se         0.1530739908       -4.8127258765        4.4857470154
 Se        -2.4165821141       -7.4203714144       -2.0539785530
 Se        -0.0669932837       -7.8789145914        1.3095820950
 Se        -4.5518819648        7.5947906065       -0.0125129242
 Se        -1.8466213198        6.3632745943        3.5399737713
 Se         0.4036789110        5.8261765585        7.5856029508
 Se        -4.4658410829        4.5539055304       -3.3489147536
 Se        -2.0809269171        3.7152362807        0.3431446666
 Se         0.4981575715        2.6970346328        3.7286140234
 Se         2.7717581078        1.9958220882        7.6259592231
 Se        -4.6129560495        2.0746641507       -6.9048711065
 Se        -2.2788134550        0.8534635528       -3.1260952966
 Se         0.0145406864       -0.1632316717        0.3853890205
 Se         2.3129895136       -1.3189331416        3.9989121206
 Se         4.8631104901       -1.8843310684        7.7351705825
 Se        -2.0702436586       -1.9663867996       -6.4603220451
 Se        -0.0447678027       -3.1598371966       -2.8087701105
 Se         2.2323159356       -4.2313696437        0.7809069169
 Se         4.8362017036       -4.9530026816        4.0967178401
 Se        -0.7551598264       -6.2845661493       -5.8413806837
 Se         1.9249851732       -7.4788030562       -2.6075357777
 Se         4.2593901231       -8.3789546128        0.7364961263
 Se         0.0356964949        7.3685323961       -0.4911857243
 Se         2.3808257896        6.5252125855        3.1423513719
 Se         0.0436958370        4.4287457411       -3.5939366728
 Se         2.5163036860        3.6274575749       -0.0567613237
 Se         4.7725995306        2.4662062375        3.1253524443
 Se         0.0455213215        1.9297595014       -6.9703826396
 Se         2.2757161236        0.7647655117       -3.6569940714
 Se         4.3765526265       -0.2853899859       -0.0177149180
 Se         6.9676319246       -1.1294696803        3.5582892967
 Se         2.2368195657       -2.2680223131       -6.6837295260
 Se         4.3735799678       -3.1974490340       -3.2155544312
 Se         6.4330718905       -4.1116528269        0.4130879262
 Se         4.8512972848        7.5523750700       -0.7457715025
 Se         4.8773244220        4.5489012682       -4.0121138811
 Se         7.0854009165        3.5933657400       -0.6428056859
 Se         4.7814599351        1.5263326272       -7.5555272259
 Se         6.9183373685        0.6112128204       -3.7073130658
 Se         9.1067350094       -0.0627784297       -0.0921877032
  C         6.9966522234       -6.9496972670       -2.8612761671
  H         7.7649322095       -7.1224747738       -3.6684216540
  O         5.8436754662       -6.4671224801       -3.1399521748
  O         7.2880659396       -7.2738543469       -1.6932459234
  C         3.3951293572       -6.2672280514       -6.9491037407
  H         4.3444066225       -6.8936096686       -7.0753272229
  O         3.0186994850       -5.7906342313       -5.7816601971
  O         2.6174640924       -6.1685977755       -7.9237746162
  C         6.3106251825       -2.9078985545       -7.4908952160
  H         7.1299137504       -3.7048862282       -7.4466889051
  O         6.0084789445       -2.3179957603       -6.3472313651
  O         5.9390437920       -2.4739789224       -8.6122638156
  C         8.9773337177       -3.3709095943       -3.4295926597
  H         9.9250180562       -3.8774829974       -3.1826003730
  O         8.5679224246       -3.4146364777       -4.6044744736
  O         8.2714697618       -2.6966711728       -2.5198726932
  C         9.7979662727       -4.6251583752        2.1809551021
  H        10.6408655401       -5.3318691344        2.3887999993
  O         9.7468112012       -4.1801912040        0.9924876917
  O         9.0280663858       -4.5678951949        3.1869596225
  C        -2.8216879160       -8.8883248377        5.3598604766
  H        -2.4154187803       -9.9024293192        5.4343946394
  O        -1.9846773673       -7.9304402684        5.0421277324
  O        -4.0904286686       -8.7270689272        5.4041972037
  C         2.9968919485       -8.6915030310        5.2874451401
  H         2.6967725338       -9.0398269484        6.2934215078
  O         1.9991738984       -8.3575644820        4.5592698368
  O         4.2233647660       -8.6001648566        4.9148940946
  C         2.8792440471       -5.7053348147        8.2323354008
  H         2.3955873073       -6.3773024893        8.9303283437
  O         2.2188033391       -4.8086551692        7.6160201226
  O         4.1498454804       -5.9031687587        8.1532081148
  C        -2.5346853740       -5.9173614794        8.5218690553
  H        -2.0052498086       -6.7390725628        9.0096019785
  O        -1.9214840939       -5.2579285028        7.5982311713
  O        -3.6522259804       -5.5080806456        8.8924123713
  C        -6.8630444600        2.3027244727        7.3890498248
  H        -7.2086193538        3.3071349018        7.3885257928
  O        -5.6210456211        2.1589410464        7.5334245053
  O        -7.6692061884        1.3700304250        7.1999106284
  C        -4.1170336989        6.2827336865        7.2280827669
  H        -5.2418933127        6.2896177269        7.3832000201
  O        -3.5263697848        5.2288964748        6.7736348741
  O        -3.5907740935        7.4671405190        7.3177996692
  C        -6.2566895070        7.1461467531        4.0781329152
  H        -7.2111390447        7.1649409639        4.6689854642
  O        -5.8088298425        6.0476853029        3.6277062194
  O        -5.6123121010        8.2204225644        3.8484100211
  C        -9.2740989747        2.9616885906        4.4605142433
  H        -9.7855372140        3.8838940690        4.7760086716
  O        -8.0585921822        3.0118186445        4.1191401820
  O       -10.0807214215        1.9789365433        4.3920471407
  C        -9.6031967845       -3.5281733239        4.2551177205
  H       -10.5971720209       -3.6001750875        4.7566807035
  O        -9.3829315615       -2.7227174081        3.2942872848
  O        -8.6781264260       -4.3013831909        4.7627737960
  C        -5.4081399223       -6.0791535101       -6.1561086699
  H        -6.0546960796       -6.5859836395       -6.8890942905
  O        -5.3107237297       -6.5038223519       -4.9648505750
  O        -4.7980005441       -5.0926000134       -6.6850959644
  C        -7.4874417731       -7.2704441436       -1.8348160022
  H        -7.8388434959       -7.7173330376       -2.7530342297
  O        -6.3885382922       -6.5547603823       -1.8840446493
  O        -8.0713574053       -7.4406289243       -0.7456025816
  C        -9.2561601715       -3.4270426800       -2.1219379985
  H        -9.5270787848       -4.0663584857       -2.9594189931
  O        -8.1696178247       -2.7552673722       -2.2725869529
  O        -9.8239194707       -3.4937825048       -1.0090275919
  C        -6.7206624720       -1.5102211808       -7.0045157985
  H        -7.7450574417       -1.9674181007       -7.1698505571
  O        -6.3194933945       -1.2781854169       -5.7987799886
  O        -6.0628885302       -1.2634061348       -8.0152520463
  C        -1.9628215353        5.6954704060       -7.4852361725
  H        -1.7770888886        6.7764005651       -7.4923242406
  O        -2.4610202822        5.1864652651       -6.4085489522
  O        -1.7565160387        5.0399591501       -8.5280299957
  C        -1.7168085574        9.0074151111       -3.7839231484
  H        -1.3493405476        9.2660238074       -4.8465614694
  O        -1.7702339261        7.7191796639       -3.5244529242
  O        -1.9638076250        9.8892362556       -2.9405243962
  C         2.5061664404        8.6538061416       -4.1272922380
  H         2.7131102182        9.0638249498       -5.0476060874
  O         2.0944668371        7.4529475123       -4.0307048942
  O         2.6626321030        9.4109552137       -3.1549242465
  C         1.7410591238        5.3672318751       -8.1967890588
  H         1.4358383610        6.4416008070       -8.3632925476
  O         2.2781561879        5.0762872873       -7.0403040352
  O         1.5314594993        4.4830659672       -9.0172785920
  C         9.4767416827        2.6096112155        3.9000382517
  H         9.6131090334        3.4671477718        4.5843902861
  O         8.5277528168        2.7172277289        3.0490049014
  O        10.1882493087        1.5399442376        4.0327922912
  C         6.6326080111        7.0381981417        3.3282484244
  H         7.5082674956        7.1289998248        4.0070788575
  O         6.4941845333        6.1601751760        2.4465114292
  O         5.7951834566        7.9028162143        3.5809659667
  C         4.7447974009        5.8524356275        6.9352942549
  H         5.7085862008        5.7040540943        7.4370666698
  O         4.3283273533        4.9884448015        6.0813586313
  O         4.1452670010        6.9222631448        7.1368137160
  C         7.5603127790        1.7452861277        7.1877642505
  H         8.1158840311        2.6116602203        7.6593692779
  O         6.7455949830        2.0300713352        6.2243338992
  O         7.8433001329        0.5819852414        7.5891777202
     227
 i =        2, time =        2.000, E =       -35.0646395808
 Cd        -8.6170550692        0.4785129799        3.4767137476
 Cd        -5.8707046877       -0.2574689488        7.1137514180
 Cd        -8.4090738020       -2.1551937035        0.3836436863
 Cd        -6.8897931696       -3.2939749359        3.9620963911