     227
 i =        0, time =        0.000, E =       -17.3165746505
 Cd        -8.6216924880        0.4810107428        3.4775887729
 Cd        -5.8723589632       -0.2566559957        7.1151373767
 Cd        -8.4076147924       -2.1531404527        0.3867588804
 Cd        -6.8957642261       -3.2896665849        3.9600318291
 Cd        -3.6930098048       -3.6992689615        7.3819491709
 Cd        -6.4429261463       -6.2347087238        0.4622469067
 Cd        -4.3123952394       -6.8285875372        3.9039095072
 Cd        -6.1141073353        3.8626235599        2.9066844924
 Cd        -3.6048790416        2.8797284733        6.5917986711
 Cd        -6.7531255596        1.1841266196       -0.3182182747
 Cd        -4.0437606329        0.0729837467        3.0511954168
 Cd        -1.7753257667       -0.3121054857        6.8316599018
 Cd        -6.3661028473       -1.4630135273       -3.4383357626
 Cd        -4.3602814436       -3.1214810613       -0.1759283953
 Cd        -2.2424276819       -3.6242998489        3.6335413818
 Cd         0.1757294635       -3.9625201566        7.0364714760
 Cd        -4.2692200317       -5.9860442556       -3.0005266361
 Cd        -2.2482225396       -6.7972628816        0.6786391664
 Cd         0.0669003827       -7.3030327295        3.8545421700
 Cd        -4.0792754193        7.4105475565        2.4175118797
 Cd        -1.6116442377        6.4880648240        6.2478272306
 Cd        -4.3308002626        4.8127262164       -0.6762739309
 Cd        -1.8326132452        3.6694977750        3.1598212265
 Cd         0.4939817277        3.1637060931        6.7202662426
 Cd        -4.5980154021        1.9988297698       -4.0880170010
 Cd        -2.1651194586        1.0165564496       -0.4536921834
 Cd         0.1376109507       -0.0659106884        3.1336818174
 Cd         2.6419074521       -0.6636939286        6.8958319365
 Cd        -4.1515129292       -0.5348426091       -6.9620217917
 Cd        -2.2012490343       -1.8491984656       -3.4894107829
 Cd         0.0359311218       -2.8494155653       -0.0264680683
 Cd         2.4407298775       -3.8224684908        3.5289587884
 Cd         4.5907434619       -4.2169180472        6.5928471603
 Cd        -2.6321953796       -4.5685798778       -6.0773989300
 Cd        -0.3638438279       -6.1221236347       -3.0620735359
 Cd         1.9882729153       -6.8506852632       -0.0376753302
 Cd         4.3604701588       -7.5063202656        3.0981086138
 Cd        -2.4313710890        8.2839908015       -1.2010761441
 Cd         0.1210964618        6.7915494583        2.0748938605
 Cd         2.2602783261        6.3879934074        5.9824457591
 Cd        -2.2743307721        5.5403016700       -4.1096429978
 Cd         0.1552258413        4.6164378819       -0.9814446932
 Cd         2.6173372932        3.7540356816        2.4616712460
 Cd         4.3934694910        2.5024270436        5.6448470259
 Cd        -2.3839877703        3.0961459608       -7.5397423510
 Cd        -0.1308699873        1.7716472388       -4.3458913396
 Cd         2.1522040622        0.8595996928       -0.9600505658
 Cd         4.3027041934       -0.4425155449        2.5248589789
 Cd         6.4943132815       -0.6514444341        6.0110723312
 Cd         0.4032906214       -0.5920449882       -7.0625722312
 Cd         2.1504065746       -1.8410095193       -3.9631978812
 Cd         4.1282053355       -2.9764966895       -0.5499119195
 Cd         6.9189885741       -3.8001688729        2.8840486736
 Cd         1.0693858855       -4.7693596381       -6.7909688629
 Cd         3.6529341800       -5.7620820022       -3.6150795142
 Cd         5.7341856059       -6.5625995016       -0.3323817960
 Cd         2.4532379782        8.1225833618       -1.1556872380
 Cd         4.4025673150        7.2904811152        1.7928276254
 Cd         2.3800547108        5.2453457502       -4.8107637235
 Cd         4.8184663347        4.7191125514       -1.4277792117
 Cd         6.7589411702        3.8390778732        2.0295448973
 Cd         2.6210634084        2.7844913241       -7.7035228004
 Cd         4.8495943395        1.7843685348       -4.5225056138
 Cd         6.7261500983        1.0662237140       -0.9642295531
 Cd         8.8881450478        0.4141445330        2.4369093904
 Cd         4.3615782352       -0.9213178924       -7.7328888960
 Cd         6.7438649008       -1.9767569930       -4.2031112584
 Cd         8.5272445020       -2.6218905711       -0.2551455218
 Se        -9.0557725106        0.2424574140        0.9180313808
 Se        -6.3745872764       -0.6570220647        4.4225742627
 Se        -3.9358548519       -1.3506397678        8.2925868769
 Se        -6.5830028390       -3.7408669090        1.3890860046
 Se        -4.5802302415       -4.2716541219        4.8585926421
 Se        -4.6110671623       -7.7792240778        1.5343213278
 Se        -6.6407812351        3.9866809498        0.4586064126
 Se        -4.0705866514        2.6241591830        3.9150270775
 Se        -1.6315747320        2.0143859544        7.9219454430
 Se        -6.7106235468        0.9827493806       -3.1628202938
 Se        -4.4077684895       -0.2106461950        0.3970531668
 Se        -2.0534879979       -1.1190641497        4.2604482105
 Se         0.4069246601       -1.5676855049        8.0617057342
 Se        -4.4126107232       -3.1307459794       -2.8028288282
 Se        -2.2371864822       -4.0884616040        0.9473336128
 Se         0.1541797359       -4.8148952714        4.4843326207
 Se        -2.4147106009       -7.4199706225       -2.0529393442
 Se        -0.0662571417       -7.8800811154        1.3078284855
 Se        -4.5519687636        7.5920037884       -0.0122560791
 Se        -1.8482840651        6.3647212661        3.5390459072
 Se         0.4006735392        5.8241498358        7.5878867146
 Se        -4.4655945585        4.5529209660       -3.3484418515
 Se        -2.0798083538        3.7153034916        0.3451575142
 Se         0.4973892782        2.6967113851        3.7286137790
 Se         2.7724753484        1.9958260876        7.6298945277
 Se        -4.6126224962        2.0736182894       -6.9031574659
 Se        -2.2770211290        0.8531533747       -3.1284312065
 Se         0.0138865169       -0.1636477002        0.3858468104
 Se         2.3115473387       -1.3198431962        4.0017354986
 Se         4.8624545925       -1.8855864388        7.7371297607
 Se        -2.0700877949       -1.9675257511       -6.4603372509
 Se        -0.0447057629       -3.1582708631       -2.8090856920
 Se         2.2343306950       -4.2299664240        0.7817840723
 Se         4.8342987615       -4.9516929708        4.0974643468
 Se        -0.7556003326       -6.2829108386       -5.8406699955
 Se         1.9243057511       -7.4784768035       -2.6074198353
 Se         4.2543989663       -8.3809591814        0.7363809319
 Se         0.0386925703        7.3677075300       -0.4939635450
 Se         2.3791568525        6.5289221229        3.1400383851
 Se         0.0465974103        4.4270318221       -3.5936563407
 Se         2.5167269427        3.6273521599       -0.0581806204
 Se         4.7705604635        2.4670139639        3.1233546104
 Se         0.0435933033        1.9323944164       -6.9695738842
 Se         2.2733127965        0.7623703678       -3.6584263160
 Se         4.3816175435       -0.2841549253       -0.0177063702
 Se         6.9670500347       -1.1290204494        3.5565582379
 Se         2.2410869402       -2.2702007814       -6.6798205275
 Se         4.3723294721       -3.1971869108       -3.2130677403
 Se         6.4331938555       -4.1098532443        0.4136420186
 Se         4.8503033307        7.5509093293       -0.7463548497
 Se         4.8776288797        4.5477652435       -4.0091414448
 Se         7.0830986217        3.5950723552       -0.6434567968
 Se         4.7810064642        1.5273410534       -7.5566303287
 Se         6.9188050062        0.6130038217       -3.7081238627
 Se         9.1066871843       -0.0609359671       -0.0919647969
  C         6.9955771113       -6.9586634775       -2.8583426301
  H         7.7780160969       -7.1271873265       -3.6573399650
  O         5.8389952916       -6.4652991204       -3.1445809228
  O         7.2920676004       -7.2683568805       -1.6893132711
  C         3.3939431960       -6.2668607509       -6.9513074648
  H         4.3245440932       -6.8689211647       -7.0591687882
  O         3.0202466073       -5.7860511295       -5.7843136273
  O         2.6220129789       -6.1746538788       -7.9242101403
  C         6.3116555909       -2.9071154185       -7.4921130606
  H         7.0978863851       -3.7212906458       -7.4285512081
  O         6.0096715894       -2.3219711192       -6.3505932827
  O         5.9403243477       -2.4750431756       -8.6116316973
  C         8.9837561036       -3.3697375837       -3.4349055328
  H         9.9249943929       -3.8864043165       -3.1840078659
  O         8.5659407989       -3.4209184445       -4.6048832464
  O         8.2714489672       -2.6971151254       -2.5207012617
  C         9.7902109758       -4.6282247391        2.1768529346
  H        10.6284324694       -5.3337138149        2.3552924638
  O         9.7484501532       -4.1824896055        0.9942458601
  O         9.0219926648       -4.5705851174        3.1873629795
  C        -2.8252708508       -8.8894178348        5.3653894160
  H        -2.3915771747       -9.8892286280        5.4446685031
  O        -1.9808601030       -7.9304545651        5.0436955975
  O        -4.0908415257       -8.7280019527        5.4030844137
  C         3.0047406823       -8.6887063298        5.2919739424
  H         2.6853413808       -9.0312323512        6.2714246943
  O         1.9985977812       -8.3553887881        4.5599054594
  O         4.2197147413       -8.6069092298        4.9235206312
  C         2.8732291572       -5.7090624943        8.2322507888
  H         2.4095730423       -6.3582442170        8.9295273658
  O         2.2236878889       -4.8031284854        7.6183804854
  O         4.1525405945       -5.8988692439        8.1468427445
  C        -2.5324052264       -5.9090323801        8.5168983878
  H        -2.0058427467       -6.7599986745        9.0204193621
  O        -1.9189018681       -5.2527647032        7.5983339134
  O        -3.6521974131       -5.4981014961        8.8936623702
  C        -6.8661340661        2.3082426882        7.3884767521
  H        -7.2433530482        3.2983326111        7.3747512577
  O        -5.6189307919        2.1553364867        7.5292857639
  O        -7.6694328727        1.3672322100        7.2032576312
  C        -4.1128935570        6.2776012356        7.2258109093
  H        -5.2184092536        6.2949225170        7.4003980339
  O        -3.5215502414        5.2331222329        6.7794929280
  O        -3.5956064510        7.4679880815        7.3184340370
  C        -6.2584500423        7.1467273309        4.0778865765
  H        -7.2018864753        7.1620259062        4.6862261037
  O        -5.8042352338        6.0508881806        3.6277903665
  O        -5.6141473350        8.2227071687        3.8530055117
  C        -9.2670155991        2.9624473135        4.4549609073
  H        -9.7760873251        3.8307467380        4.7753730710
  O        -8.0580447847        3.0137717908        4.1153681461
  O       -10.0869615960        1.9755230626        4.3964141791
  C        -9.5997958208       -3.5202239981        4.2555074891
  H       -10.6284324694       -3.6062117458        4.7363993397
  O        -9.3836198173       -2.7271085544        3.2939504316
  O        -8.6749593009       -4.3055307223        4.7674147240
  C        -5.4063829718       -6.0836320759       -6.1576393485
  H        -6.0390997038       -6.5934387315       -6.8768176703
  O        -5.3157147411       -6.5042627408       -4.9638375967
  O        -4.7997118332       -5.0931497246       -6.6842330004
  C        -7.4812021438       -7.2683192216       -1.8337008205
  H        -7.8430239833       -7.7214409635       -2.7403108931
  O        -6.3847231004       -6.5596142310       -1.8855223803
  O        -8.0870004405       -7.4369608581       -0.7449951352
  C        -9.2637717352       -3.4248031045       -2.1287629167
  H        -9.5435102925       -4.0726156799       -2.9624854104
  O        -8.1685743898       -2.7562864935       -2.2769679175
  O        -9.8293124780       -3.4993302663       -1.0042472880
  C        -6.7198117275       -1.5155721631       -7.0057360974
  H        -7.7266400310       -1.9701098143       -7.1795729881
  O        -6.3208037730       -1.2812141421       -5.7891801227
  O        -6.0546670581       -1.2647410752       -8.0219575549
  C        -1.9610306020        5.6962737072       -7.4797868569
  H        -1.8068881661        6.7616764611       -7.4798700689
  O        -2.4613788677        5.1953402046       -6.4147373301
  O        -1.7592038190        5.0404242691       -8.5376948407
  C        -1.7153677193        9.0065729983       -3.7807068554
  H        -1.3518565997        9.2891789052       -4.8285272378
  O        -1.7735635219        7.7204009534       -3.5311974415
  O        -1.9589811591        9.8892286280       -2.9296575010
  C         2.5176986766        8.6527359013       -4.1276241396
  H         2.7356319561        9.0838176512       -5.0545617483
  O         2.0941304229        7.4607563111       -4.0382054964
  O         2.6632020791        9.4136986823       -3.1567247192
  C         1.7405814703        5.3615037054       -8.2026998584
  H         1.4592813282        6.4433815072       -8.3446733349
  O         2.2712544771        5.0744229803       -7.0359036782
  O         1.5374971892        4.4786315137       -9.0204193621
  C         9.4791869119        2.6134878200        3.9079418032
  H         9.6264681644        3.4611325178        4.5867541287
  O         8.5294682966        2.7206869475        3.0468687327
  O        10.1884170796        1.5361363159        4.0354546634
  C         6.6320899766        7.0427804887        3.3240585285
  H         7.5183451153        7.1103565644        4.0025867163
  O         6.4921259472        6.1579139584        2.4473334656
  O         5.8014508194        7.8970951585        3.5804466065
  C         4.7468288793        5.8510846562        6.9391041765
  H         5.6837062732        5.7110173508        7.4566454645
  O         4.3315486404        4.9881730889        6.0840680113
  O         4.1390624477        6.9214380767        7.1338855679
  C         7.5642974957        1.7429307679        7.1823006621
  H         8.1116275708        2.6102062210        7.6466333920
  O         6.7423080014        2.0330978891        6.2208765696
  O         7.8434776238        0.5800715711        7.5931108165
     227
 i =        1, time =        1.000, E =       -17.3260396612
 Cd        -8.6193436654        0.4796504280        3.4771763221
 Cd        -5.8715540327       -0.2571748623        7.1143935237
 Cd        -8.4082333736       -2.1541505545        0.3852222918
 Cd        -6.8927308909       -3.2917988373        3.9610952271
 Cd        -3.6901786811       -3.7004100304        7.3823862117
 Cd        -6.4419875379       -6.2357649758        0.4642644622
 Cd        -4.3123481328       -6.8296307362        3.9052368736
 Cd        -6.1163977478        3.8609342279        2.9055847000
 Cd        -3.6066414941        2.8812391133        6.5904098000
 Cd        -6.7534363519        1.1872441124       -0.3192277271
 Cd        -4.0444369823        0.0755193262        3.0501861713
 Cd        -1.7741842812       -0.3125864743        6.8335954183
 Cd        -6.3661096532       -1.4624569717       -3.4401800988
 Cd        -4.3613650338       -3.1217780962       -0.1745482204
 Cd        -2.2426128967       -3.6215820165        3.6336130591
 Cd         0.1786996215       -3.9615998769        7.0369459536
 Cd        -4.2693942016       -5.9882262326       -2.9988695292
 Cd        -2.2487207175       -6.7966292426        0.6791540557
 Cd         0.0677838829       -7.3030126972        3.8542391905
 Cd        -4.0802995455        7.4119286977        2.4182906175
 Cd        -1.6108104459        6.4879392870        6.2509663710
 Cd        -4.3325459831        4.8128161284       -0.6769568692
 Cd        -1.8304031816        3.6696056969        3.1589363808
 Cd         0.4898067955        3.1633388660        6.7205436350
 Cd        -4.5996285205        2.0001224265       -4.0890244047
 Cd        -2.1629078561        1.0181363958       -0.4517587415
 Cd         0.1384314879       -0.0681641061        3.1344197638
 Cd         2.6424402412       -0.6635576061        6.8959151862
 Cd        -4.1541034514       -0.5351503806       -6.9611320652
 Cd        -2.2031872719       -1.8490956139       -3.4900373529
 Cd         0.0358054877       -2.8474999971       -0.0251011025
 Cd         2.4397150184       -3.8215731598        3.5304632228
 Cd         4.5938309795       -4.2152083056        6.5946960433
 Cd        -2.6317114883       -4.5699787553       -6.0785502294
 Cd        -0.3609625877       -6.1210707751       -3.0631414947
 Cd         1.9864096363       -6.8523593864       -0.0374602285
 Cd         4.3578658832       -7.5050343962        3.0974023923
 Cd        -2.4320399038        8.2867393634       -1.2003828248
 Cd         0.1211452846        6.7911544259        2.0747729634
 Cd         2.2581250173        6.3879403689        5.9826388663
 Cd        -2.2740310993        5.5405612029       -4.1121405817
 Cd         0.1544563811        4.6148739847       -0.9823425235
 Cd         2.6165218958        3.7533642718        2.4610457467
 Cd         4.3939390027        2.5015430334        5.6447149875
 Cd        -2.3864673370        3.0937323911       -7.5398975089
 Cd        -0.1312620299        1.7709371470       -4.3474207996
 Cd         2.1531821354        0.8600332128       -0.9632080096
 Cd         4.3034890905       -0.4402492113        2.5248240462
 Cd         6.4920388495       -0.6517630075        6.0105144666
 Cd         0.4042433703       -0.5927850624       -7.0621400752
 Cd         2.1513205293       -1.8411115885       -3.9633391967
 Cd         4.1299939878       -2.9780205143       -0.5482382058
 Cd         6.9198277617       -3.7969721591        2.8855453503
 Cd         1.0695827346       -4.7692047797       -6.7906783732
 Cd         3.6506450786       -5.7625243058       -3.6177211295
 Cd         5.7329670427       -6.5640210440       -0.3327854751
 Cd         2.4551053748        8.1223138035       -1.1566452336
 Cd         4.4053787564        7.2897982809        1.7948358807
 Cd         2.3804081154        5.2452253071       -4.8087162258
 Cd         4.8189860257        4.7184679358       -1.4284041256
 Cd         6.7582472704        3.8401602825        2.0311444800
 Cd         2.6217762532        2.7829339007       -7.7033833977
 Cd         4.8493361213        1.7846850563       -4.5231423558
 Cd         6.7277302968        1.0650035141       -0.9631209363
 Cd         8.8867478278        0.4155884929        2.4348057211
 Cd         4.3618196477       -0.9226525911       -7.7309212386
 Cd         6.7427838742       -1.9756291738       -4.2012674374
 Cd         8.5291394320       -2.6208094756       -0.2527992414
 Se        -9.0547668476        0.2428905848        0.9183106389
 Se        -6.3727575223       -0.6564970164        4.4183101438
 Se        -3.9345261455       -1.3489515756        8.2965350816
 Se        -6.5831085884       -3.7425420651        1.3880587808
 Se        -4.5790555450       -4.2748670496        4.8597434229
 Se        -4.6122343112       -7.7765738367        1.5328424480
 Se        -6.6422578668        3.9855430750        0.4576744254
 Se        -4.0719407295        2.6208411387        3.9143003464
 Se        -1.6333080559        2.0117592742        7.9251050329
 Se        -6.7116935700        0.9829088019       -3.1654325388
 Se        -4.4070639322       -0.2111915550        0.3949009870
 Se        -2.0531143355       -1.1153323051        4.2593821307
 Se         0.4059970477       -1.5661700333        8.0650577418
 Se        -4.4160572400       -3.1299974174       -2.8046726464
 Se        -2.2374264622       -4.0915798830        0.9472087336
 Se         0.1530495854       -4.8127367821        4.4858011784
 Se        -2.4165639079       -7.4206008088       -2.0539482806
 Se        -0.0669343047       -7.8791312643        1.3095600525
 Se        -4.5521231233        7.5948370655       -0.0126196453
 Se        -1.8467669055        6.3633048851        3.5400888912
 Se         0.4037050474        5.8261566335        7.5858772289
 Se        -4.4660324422        4.5539610147       -3.3489425738
 Se        -2.0809646697        3.7152399307        0.3431664423
 Se         0.4982231591        2.6969942963        3.7286880045
 Se         2.7717882100        1.9958608605        7.6261794401
 Se        -4.6131722904        2.0747466141       -6.9049050252
 Se        -2.2788795179        0.8535006089       -3.1261051663
 Se         0.0145663509       -0.1632300617        0.3854031248
 Se         2.3129800071       -1.3188945482        3.9990167208
 Se         4.8631586712       -1.8843056532        7.7353845054
 Se        -2.0701932067       -1.9664152219       -6.4603705213
 Se        -0.0447146554       -3.1599250906       -2.8087822170
 Se         2.2323144285       -4.2314445153        0.7809337893
 Se         4.8362340356       -4.9530940286        4.0967236654
 Se        -0.7551527584       -6.2848138632       -5.8413904757
 Se         1.9250059628       -7.4790152414       -2.6076229273
 Se         4.2593633613       -8.3791822590        0.7364026568
 Se         0.0356448252        7.3686109783       -0.4913038308
 Se         2.3809152485        6.5252121464        3.1424901579
 Se         0.0437299619        4.4288082016       -3.5940019128
 Se         2.5163684729        3.6274424379       -0.0568732780
 Se         4.7727000210        2.4661675249        3.1253253632
 Se         0.0455165825        1.9299464851       -6.9705092118
 Se         2.2758150815        0.7648362535       -3.6570494647
 Se         4.3766426328       -0.2853728757       -0.0178144556
 Se         6.9676994067       -1.1294548341        3.5582297092
 Se         2.2369813992       -2.2681749280       -6.6837709979
 Se         4.3737113525       -3.1974803766       -3.2156426354
 Se         6.4331293029       -4.1116860436        0.4129654193
 Se         4.8515462433        7.5524076545       -0.7458997954
 Se         4.8774502754        4.5489700549       -4.0122432177
 Se         7.0855785244        3.5934699505       -0.6428663147
 Se         4.7816949892        1.5264346958       -7.5555409692
 Se         6.9185504350        0.6112148443       -3.7073497779
 Se         9.1068664830       -0.0627080910       -0.0923187492
  C         6.9966699903       -6.9497943403       -2.8612716690
  H         7.7649322095       -7.1224747738       -3.6684216540
  O         5.8439873604       -6.4672302356       -3.1400290154
  O         7.2885865626       -7.2741399383       -1.6936721663
  C         3.3950861379       -6.2672811903       -6.9491562765
  H         4.3444066225       -6.8936096686       -7.0753272229
  O         3.0187931480       -5.7908379922       -5.7820285438
  O         2.6176820025       -6.1688563611       -7.9239539772
  C         6.3106270611       -2.9078659850       -7.4910042534
  H         7.1299137504       -3.7048862282       -7.4466889051
  O         6.0084979075       -2.3181577834       -6.3474890387
  O         5.9393088256       -2.4742050075       -8.6124302772
  C         8.9774116265       -3.3708899626       -3.4296308345
  H         9.9250180562       -3.8774829974       -3.1826003730
  O         8.5682259311       -3.4148478137       -4.6045873989
  O         8.2716809795       -2.6967154712       -2.5200884713
  C         9.7980399282       -4.6251872786        2.1809843194
  H        10.6408655401       -5.3318691344        2.3887999993
  O         9.7470848079       -4.1804678387        0.9926163182
  O         9.0285827752       -4.5681105387        3.1870411001
  C        -2.8217172866       -8.8884019156        5.3598599702
  H        -2.4154187803       -9.9024293192        5.4343946394
  O        -1.9847589114       -7.9305972861        5.0422881890
  O        -4.0904476765       -8.7273622650        5.4043795179
  C         2.9969122856       -8.6915843298        5.2874325483
  H         2.6967725338       -9.0398269484        6.2934215078
  O         1.9993856334       -8.3578277740        4.5594107885
  O         4.2233419830       -8.6006573204        4.9156376472
  C         2.8792850637       -5.7053294826        8.2323983061
  H         2.3955873073       -6.3773024893        8.9303283437
  O         2.2190420717       -4.8088346047        7.6162865913
  O         4.1498204861       -5.9034540427        8.1535441528
  C        -2.5347043375       -5.9173522126        8.5219627960
  H        -2.0052498086       -6.7390725628        9.0096019785
  O        -1.9213938760       -5.2582784050        7.5983185291
  O        -3.6522353642       -5.5083748930        8.8927109489
  C        -6.8630604892        2.3027118759        7.3891567425
  H        -7.2086193538        3.3071349018        7.3885257928
  O        -5.6213065471        2.1590692667        7.5336633657
  O        -7.6694842365        1.3702300791        7.1999438897
  C        -4.1170083362        6.2827818028        7.2281569773
  H        -5.2418933127        6.2896177269        7.3832000201
  O        -3.5266564407        5.2290314926        6.7738024292
  O        -3.5910202816        7.4672880922        7.3179935327
  C        -6.2567260591        7.1462128072        4.0781054336
  H        -7.2111390447        7.1649409639        4.6689854642
  O        -5.8089881656        6.0478932560        3.6278711808
  O        -5.6127438184        8.2206933974        3.8487374116
  C        -9.2741822838        2.9617355038        4.4604888197
  H        -9.7855372140        3.8838940690        4.7760086716
  O        -8.0587896655        3.0118670937        4.1192600400
  O       -10.0810719744        1.9792555750        4.3922062813
  C        -9.6032537951       -3.5282055601        4.2551516042
  H       -10.5971720209       -3.6001750875        4.7566807035
  O        -9.3831958719       -2.7227630724        3.2942782047
  O        -8.6786580001       -4.3017054452        4.7630098188
  C        -5.4081387786       -6.0792089174       -6.1561678373
  H        -6.0546960796       -6.5859836395       -6.8890942905
  O        -5.3110039041       -6.5040401144       -4.9652147519
  O        -4.7983915346       -5.0927269747       -6.6852722820
  C        -7.4874776010       -7.2705331443       -1.8348009348
  H        -7.8388434959       -7.7173330376       -2.7530342297
  O        -6.3887165700       -6.5549387836       -1.8842792465
  O        -8.0716435058       -7.4408644610       -0.7458007714
  C        -9.2562416394       -3.4270119180       -2.1219641306
  H        -9.5270787848       -4.0663584857       -2.9594189931
  O        -8.1697864440       -2.7553787389       -2.2726587134
  O        -9.8241666084       -3.4939446260       -1.0091897971
  C        -6.7206952852       -1.5101681730       -7.0045744186
  H        -7.7450574417       -1.9674181007       -7.1698505571
  O        -6.3197374751       -1.2781472598       -5.7990378785
  O        -6.0632884278       -1.2634941708       -8.0154965134
  C        -1.9628819134        5.6954842519       -7.4852930295
  H        -1.7770888886        6.7764005651       -7.4923242406
  O        -2.4611388935        5.1866931319       -6.4087333170
  O        -1.7563978996        5.0404124838       -8.5283242591
  C        -1.7168680174        9.0074812608       -3.7839167076
  H        -1.3493405476        9.2660238074       -4.8465614694
  O        -1.7700842465        7.7194965389       -3.5245844068
  O        -1.9637591208        9.8895165420       -2.9407876177
  C         2.5062183339        8.6538635267       -4.1272910897
  H         2.7131102182        9.0638249498       -5.0476060874
  O         2.0944567215        7.4532357647       -4.0306866669
  O         2.6627195256        9.4111409855       -3.1552039597
  C         1.7411292662        5.3672396101       -8.1968440537
  H         1.4358383610        6.4416008070       -8.3632925476
  O         2.2781401357        5.0765492284       -7.0407770570
  O         1.5312873205        4.4833177072       -9.0175254905
  C         9.4768424644        2.6096229266        3.9000106253
  H         9.6131090334        3.4671477718        4.5843902861
  O         8.5280018225        2.7173233053        3.0491911692
  O        10.1885051705        1.5401312800        4.0330662325
  C         6.6326453651        7.0382745508        3.3282159613
  H         7.5082674956        7.1289998248        4.0070788575
  O         6.4944188330        6.1604026978        2.4465741353
  O         5.7954520906        7.9029749400        3.5812600037
  C         4.7447758168        5.8524695333        6.9353689187
  H         5.7085862008        5.7040540943        7.4370666698
  O         4.3285361080        4.9885297589        6.0814803308
  O         4.1456807582        6.9224020323        7.1371410847
  C         7.5603306701        1.7452824243        7.1878494597
  H         8.1158840311        2.6116602203        7.6593692779
  O         6.7458266864        2.0301852192        6.2244332273
  O         7.8434783589        0.5821304806        7.5894558361
     227
 i =        2, time =        2.000, E =       -17.3415282040
 Cd        -8.6170022647        0.4783500823        3.4767929489
 Cd        -5.8708372607       -0.2575743819        7.1136378923
 Cd        -8.4089365556       -2.1552379065        0.3836247069
 Cd        -6.8896960964       -3.2938956493        3.9621404119