     227
 i =        0, time =        0.000, E =       -49.2683419423
 Cd        -8.6216924880        0.4810107428        3.4775887729
 Cd        -5.8723589632       -0.2566559957        7.1151373767
 Cd        -8.4076147924       -2.1531404527        0.3867588804
 Cd        -6.8957642261       -3.2896665849        3.9600318291
 Cd        -3.6930098048       -3.6992689615        7.3819491709
 Cd        -6.4429261463       -6.2347087238        0.4622469067
 Cd        -4.3123952394       -6.8285875372        3.9039095072
 Cd        -6.1141073353        3.8626235599        2.9066844924
 Cd        -3.6048790416        2.8797284733        6.5917986711
 Cd        -6.7531255596        1.1841266196       -0.3182182747
 Cd        -4.0437606329        0.0729837467        3.0511954168
 Cd        -1.7753257667       -0.3121054857        6.8316599018
 Cd        -6.3661028473       -1.4630135273       -3.4383357626
 Cd        -4.3602814436       -3.1214810613       -0.1759283953
 Cd        -2.2424276819       -3.6242998489        3.6335413818
 Cd         0.1757294635       -3.9625201566        7.0364714760
 Cd        -4.2692200317       -5.9860442556       -3.0005266361
 Cd        -2.2482225396       -6.7972628816        0.6786391664
 Cd         0.0669003827       -7.3030327295        3.8545421700
 Cd        -4.0792754193        7.4105475565        2.4175118797
 Cd        -1.6116442377        6.4880648240        6.2478272306
 Cd        -4.3308002626        4.8127262164       -0.6762739309
 Cd        -1.8326132452        3.6694977750        3.1598212265
 Cd         0.4939817277        3.1637060931        6.7202662426
 Cd        -4.5980154021        1.9988297698       -4.0880170010
 Cd        -2.1651194586        1.0165564496       -0.4536921834
 Cd         0.1376109507       -0.0659106884        3.1336818174
 Cd         2.6419074521       -0.6636939286        6.8958319365
 Cd        -4.1515129292       -0.5348426091       -6.9620217917
 Cd        -2.2012490343       -1.8491984656       -3.4894107829
 Cd         0.0359311218       -2.8494155653       -0.0264680683
 Cd         2.4407298775       -3.8224684908        3.5289587884
 Cd         4.5907434619       -4.2169180472        6.5928471603
 Cd        -2.6321953796       -4.5685798778       -6.0773989300
 Cd        -0.3638438279       -6.1221236347       -3.0620735359
 Cd         1.9882729153       -6.8506852632       -0.0376753302
 Cd         4.3604701588       -7.5063202656        3.0981086138
 Cd        -2.4313710890        8.2839908015       -1.2010761441
 Cd         0.1210964618        6.7915494583        2.0748938605
 Cd         2.2602783261        6.3879934074        5.9824457591
 Cd        -2.2743307721        5.5403016700       -4.1096429978
 Cd         0.1552258413        4.6164378819       -0.9814446932
 Cd         2.6173372932        3.7540356816        2.4616712460
 Cd         4.3934694910        2.5024270436        5.6448470259
 Cd        -2.3839877703        3.0961459608       -7.5397423510
 Cd        -0.1308699873        1.7716472388       -4.3458913396
 Cd         2.1522040622        0.8595996928       -0.9600505658
 Cd         4.3027041934       -0.4425155449        2.5248589789
 Cd         6.4943132815       -0.6514444341        6.0110723312
 Cd         0.4032906214       -0.5920449882       -7.0625722312
 Cd         2.1504065746       -1.8410095193       -3.9631978812
 Cd         4.1282053355       -2.9764966895       -0.5499119195
 Cd         6.9189885741       -3.8001688729        2.8840486736
 Cd         1.0693858855       -4.7693596381       -6.7909688629
 Cd         3.6529341800       -5.7620820022       -3.6150795142
 Cd         5.7341856059       -6.5625995016       -0.3323817960
 Cd         2.4532379782        8.1225833618       -1.1556872380
 Cd         4.4025673150        7.2904811152        1.7928276254
 Cd         2.3800547108        5.2453457502       -4.8107637235
 Cd         4.8184663347        4.7191125514       -1.4277792117
 Cd         6.7589411702        3.8390778732        2.0295448973
 Cd         2.6210634084        2.7844913241       -7.7035228004
 Cd         4.8495943395        1.7843685348       -4.5225056138
 Cd         6.7261500983        1.0662237140       -0.9642295531
 Cd         8.8881450478        0.4141445330        2.4369093904
 Cd         4.3615782352       -0.9213178924       -7.7328888960
 Cd         6.7438649008       -1.9767569930       -4.2031112584
 Cd         8.5272445020       -2.6218905711       -0.2551455218
 Se        -9.0557725106        0.2424574140        0.9180313808
 Se        -6.3745872764       -0.6570220647        4.4225742627
 Se        -3.9358548519       -1.3506397678        8.2925868769
 Se        -6.5830028390       -3.7408669090        1.3890860046
 Se        -4.5802302415       -4.2716541219        4.8585926421
 Se        -4.6110671623       -7.7792240778        1.5343213278
 Se        -6.6407812351        3.9866809498        0.4586064126
 Se        -4.0705866514        2.6241591830        3.9150270775
 Se        -1.6315747320        2.0143859544        7.9219454430
 Se        -6.7106235468        0.9827493806       -3.1628202938
 Se        -4.4077684895       -0.2106461950        0.3970531668
 Se        -2.0534879979       -1.1190641497        4.2604482105
 Se         0.4069246601       -1.5676855049        8.0617057342
 Se        -4.4126107232       -3.1307459794       -2.8028288282
 Se        -2.2371864822       -4.0884616040        0.9473336128
 Se         0.1541797359       -4.8148952714        4.4843326207
 Se        -2.4147106009       -7.4199706225       -2.0529393442
 Se        -0.0662571417       -7.8800811154        1.3078284855
 Se        -4.5519687636        7.5920037884       -0.0122560791
 Se        -1.8482840651        6.3647212661        3.5390459072
 Se         0.4006735392        5.8241498358        7.5878867146
 Se        -4.4655945585        4.5529209660       -3.3484418515
 Se        -2.0798083538        3.7153034916        0.3451575142
 Se         0.4973892782        2.6967113851        3.7286137790
 Se         2.7724753484        1.9958260876        7.6298945277
 Se        -4.6126224962        2.0736182894       -6.9031574659
 Se        -2.2770211290        0.8531533747       -3.1284312065
 Se         0.0138865169       -0.1636477002        0.3858468104
 Se         2.3115473387       -1.3198431962        4.0017354986
 Se         4.8624545925       -1.8855864388        7.7371297607
 Se        -2.0700877949       -1.9675257511       -6.4603372509
 Se        -0.0447057629       -3.1582708631       -2.8090856920
 Se         2.2343306950       -4.2299664240        0.7817840723
 Se         4.8342987615       -4.9516929708        4.0974643468
 Se        -0.7556003326       -6.2829108386       -5.8406699955
 Se         1.9243057511       -7.4784768035       -2.6074198353
 Se         4.2543989663       -8.3809591814        0.7363809319
 Se         0.0386925703        7.3677075300       -0.4939635450
 Se         2.3791568525        6.5289221229        3.1400383851
 Se         0.0465974103        4.4270318221       -3.5936563407
 Se         2.5167269427        3.6273521599       -0.0581806204
 Se         4.7705604635        2.4670139639        3.1233546104
 Se         0.0435933033        1.9323944164       -6.9695738842
 Se         2.2733127965        0.7623703678       -3.6584263160
 Se         4.3816175435       -0.2841549253       -0.0177063702
 Se         6.9670500347       -1.1290204494        3.5565582379
 Se         2.2410869402       -2.2702007814       -6.6798205275
 Se         4.3723294721       -3.1971869108       -3.2130677403
 Se         6.4331938555       -4.1098532443        0.4136420186
 Se         4.8503033307        7.5509093293       -0.7463548497
 Se         4.8776288797        4.5477652435       -4.0091414448
 Se         7.0830986217        3.5950723552       -0.6434567968
 Se         4.7810064642        1.5273410534       -7.5566303287
 Se         6.9188050062        0.6130038217       -3.7081238627
 Se         9.1066871843       -0.0609359671       -0.0919647969
  C         6.9955771113       -6.9586634775       -2.8583426301
  H         7.7780160969       -7.1271873265       -3.6573399650
  O         5.8389952916       -6.4652991204       -3.1445809228
  O         7.2920676004       -7.2683568805       -1.6893132711
  C         3.3939431960       -6.2668607509       -6.9513074648
  H         4.3245440932       -6.8689211647       -7.0591687882
  O         3.0202466073       -5.7860511295       -5.7843136273
  O         2.6220129789       -6.1746538788       -7.9242101403
  C         6.3116555909       -2.9071154185       -7.4921130606
  H         7.0978863851       -3.7212906458       -7.4285512081
  O         6.0096715894       -2.3219711192       -6.3505932827
  O         5.9403243477       -2.4750431756       -8.6116316973
  C         8.9837561036       -3.3697375837       -3.4349055328
  H         9.9249943929       -3.8864043165       -3.1840078659
  O         8.5659407989       -3.4209184445       -4.6048832464
  O         8.2714489672       -2.6971151254       -2.5207012617
  C         9.7902109758       -4.6282247391        2.1768529346
  H        10.6284324694       -5.3337138149        2.3552924638
  O         9.7484501532       -4.1824896055        0.9942458601
  O         9.0219926648       -4.5705851174        3.1873629795
  C        -2.8252708508       -8.8894178348        5.3653894160
  H        -2.3915771747       -9.8892286280        5.4446685031
  O        -1.9808601030       -7.9304545651        5.0436955975
  O        -4.0908415257       -8.7280019527        5.4030844137
  C         3.0047406823       -8.6887063298        5.2919739424
  H         2.6853413808       -9.0312323512        6.2714246943
  O         1.9985977812       -8.3553887881        4.5599054594
  O         4.2197147413       -8.6069092298        4.9235206312
  C         2.8732291572       -5.7090624943        8.2322507888
  H         2.4095730423       -6.3582442170        8.9295273658
  O         2.2236878889       -4.8031284854        7.6183804854
  O         4.1525405945       -5.8988692439        8.1468427445
  C        -2.5324052264       -5.9090323801        8.5168983878
  H        -2.0058427467       -6.7599986745        9.0204193621
  O        -1.9189018681       -5.2527647032        7.5983339134
  O        -3.6521974131       -5.4981014961        8.8936623702
  C        -6.8661340661        2.3082426882        7.3884767521
  H        -7.2433530482        3.2983326111        7.3747512577
  O        -5.6189307919        2.1553364867        7.5292857639
  O        -7.6694328727        1.3672322100        7.2032576312
  C        -4.1128935570        6.2776012356        7.2258109093
  H        -5.2184092536        6.2949225170        7.4003980339
  O        -3.5215502414        5.2331222329        6.7794929280
  O        -3.5956064510        7.4679880815        7.3184340370
  C        -6.2584500423        7.1467273309        4.0778865765
  H        -7.2018864753        7.1620259062        4.6862261037
  O        -5.8042352338        6.0508881806        3.6277903665
  O        -5.6141473350        8.2227071687        3.8530055117
  C        -9.2670155991        2.9624473135        4.4549609073
  H        -9.7760873251        3.8307467380        4.7753730710
  O        -8.0580447847        3.0137717908        4.1153681461
  O       -10.0869615960        1.9755230626        4.3964141791
  C        -9.5997958208       -3.5202239981        4.2555074891
  H       -10.6284324694       -3.6062117458        4.7363993397
  O        -9.3836198173       -2.7271085544        3.2939504316
  O        -8.6749593009       -4.3055307223        4.7674147240
  C        -5.4063829718       -6.0836320759       -6.1576393485
  H        -6.0390997038       -6.5934387315       -6.8768176703
  O        -5.3157147411       -6.5042627408       -4.9638375967
  O        -4.7997118332       -5.0931497246       -6.6842330004
  C        -7.4812021438       -7.2683192216       -1.8337008205
  H        -7.8430239833       -7.7214409635       -2.7403108931
  O        -6.3847231004       -6.5596142310       -1.8855223803
  O        -8.0870004405       -7.4369608581       -0.7449951352
  C        -9.2637717352       -3.4248031045       -2.1287629167
  H        -9.5435102925       -4.0726156799       -2.9624854104
  O        -8.1685743898       -2.7562864935       -2.2769679175
  O        -9.8293124780       -3.4993302663       -1.0042472880
  C        -6.7198117275       -1.5155721631       -7.0057360974
  H        -7.7266400310       -1.9701098143       -7.1795729881
  O        -6.3208037730       -1.2812141421       -5.7891801227
  O        -6.0546670581       -1.2647410752       -8.0219575549
  C        -1.9610306020        5.6962737072       -7.4797868569
  H        -1.8068881661        6.7616764611       -7.4798700689
  O        -2.4613788677        5.1953402046       -6.4147373301
  O        -1.7592038190        5.0404242691       -8.5376948407
  C        -1.7153677193        9.0065729983       -3.7807068554
  H        -1.3518565997        9.2891789052       -4.8285272378
  O        -1.7735635219        7.7204009534       -3.5311974415
  O        -1.9589811591        9.8892286280       -2.9296575010
  C         2.5176986766        8.6527359013       -4.1276241396
  H         2.7356319561        9.0838176512       -5.0545617483
  O         2.0941304229        7.4607563111       -4.0382054964
  O         2.6632020791        9.4136986823       -3.1567247192
  C         1.7405814703        5.3615037054       -8.2026998584
  H         1.4592813282        6.4433815072       -8.3446733349
  O         2.2712544771        5.0744229803       -7.0359036782
  O         1.5374971892        4.4786315137       -9.0204193621
  C         9.4791869119        2.6134878200        3.9079418032
  H         9.6264681644        3.4611325178        4.5867541287
  O         8.5294682966        2.7206869475        3.0468687327
  O        10.1884170796        1.5361363159        4.0354546634
  C         6.6320899766        7.0427804887        3.3240585285
  H         7.5183451153        7.1103565644        4.0025867163
  O         6.4921259472        6.1579139584        2.4473334656
  O         5.8014508194        7.8970951585        3.5804466065
  C         4.7468288793        5.8510846562        6.9391041765
  H         5.6837062732        5.7110173508        7.4566454645
  O         4.3315486404        4.9881730889        6.0840680113
  O         4.1390624477        6.9214380767        7.1338855679
  C         7.5642974957        1.7429307679        7.1823006621
  H         8.1116275708        2.6102062210        7.6466333920
  O         6.7423080014        2.0330978891        6.2208765696
  O         7.8434776238        0.5800715711        7.5931108165
     227
 i =        1, time =        1.000, E =       -49.2851090077
 Cd        -8.6193641303        0.4797200602        3.4771545405
 Cd        -5.8715252839       -0.2571135089        7.1144308872
 Cd        -8.4082987059       -2.1541503679        0.3852173397
 Cd        -6.8927691055       -3.2918176709        3.9610806195
 Cd        -3.6901752345       -3.7004359101        7.3824876820
 Cd        -6.4420177132       -6.2358336215        0.4642004165
 Cd        -4.3123481287       -6.8297251098        3.9052342877
 Cd        -6.1164429096        3.8609659198        2.9055710625
 Cd        -3.6066704350        2.8812611143        6.5905164981
 Cd        -6.7534976638        1.1872779793       -0.3192509847
 Cd        -4.0445031158        0.0755271140        3.0502350053
 Cd        -1.7741612249       -0.3125642801        6.8337401153
 Cd        -6.3661747987       -1.4623857550       -3.4402186636
 Cd        -4.3613666003       -3.1217913368       -0.1745396715
 Cd        -2.2426393459       -3.6215520326        3.6336560562
 Cd         0.1787626361       -3.9616084640        7.0370052293
 Cd        -4.2694493107       -5.9883495976       -2.9988926124
 Cd        -2.2486755966       -6.7967341425        0.6791200204
 Cd         0.0678086713       -7.3030413073        3.8542458701
 Cd        -4.0804434921        7.4119269066        2.4182725826
 Cd        -1.6108584944        6.4878952688        6.2510755007
 Cd        -4.3326503530        4.8128280121       -0.6770098866
 Cd        -1.8304537391        3.6696173169        3.1589534674
 Cd         0.4898130004        3.1632875352        6.7206887723
 Cd        -4.5997749174        2.0001851854       -4.0890126627
 Cd        -2.1629597696        1.0181348477       -0.4517979057
 Cd         0.1384569396       -0.0681930095        3.1344840548
 Cd         2.6424243365       -0.6635623540        6.8960729753
 Cd        -4.1542223230       -0.5351639964       -6.9611517652
 Cd        -2.2032205502       -1.8491227489       -3.4900330931
 Cd         0.0358078758       -2.8475848921       -0.0251099063
 Cd         2.4397024852       -3.8215599926        3.5304882387
 Cd         4.5937979283       -4.2152465972        6.5947759935
 Cd        -2.6317412413       -4.5700508015       -6.0786051678
 Cd        -0.3609672085       -6.1212290831       -3.0631779927
 Cd         1.9863782600       -6.8524718448       -0.0374863771
 Cd         4.3578246152       -7.5051639680        3.0974669141
 Cd        -2.4320733428        8.2867352541       -1.2004653476
 Cd         0.1211460344        6.7911740801        2.0748423686
 Cd         2.2582219289        6.3879171559        5.9827975112
 Cd        -2.2740718741        5.5405722026       -4.1121870762
 Cd         0.1544477585        4.6149154955       -0.9824273541
 Cd         2.6165678523        3.7533171672        2.4609897285
 Cd         4.3940065422        2.5016046344        5.6447366574
 Cd        -2.3865306816        3.0938635095       -7.5398703179
 Cd        -0.1312674268        1.7710125614       -4.3474604631
 Cd         2.1532815762        0.8600356655       -0.9632461175
 Cd         4.3035281561       -0.4402214314        2.5247647851
 Cd         6.4921118646       -0.6517258253        6.0105349463
 Cd         0.4042832879       -0.5927891165       -7.0621310104
 Cd         2.1514097534       -1.8411315505       -3.9633846123
 Cd         4.1300770319       -2.9780532369       -0.5482637833
 Cd         6.9198698028       -3.7969996694        2.8854797361
 Cd         1.0696927419       -4.7693464795       -6.7906370220
 Cd         3.6507132609       -5.7625911381       -3.6177994456
 Cd         5.7330772773       -6.5641070792       -0.3328738524
 Cd         2.4551761396        8.1223117987       -1.1567722825
 Cd         4.4054735148        7.2897807228        1.7948942292
 Cd         2.3804265008        5.2453189107       -4.8087739209
 Cd         4.8190980785        4.7184844588       -1.4285041883
 Cd         6.7583091099        3.8401604012        2.0311684626
 Cd         2.6218281038        2.7830157072       -7.7033982597
 Cd         4.8494904508        1.7846848143       -4.5231114499
 Cd         6.7278488515        1.0650732056       -0.9631847366
 Cd         8.8867657515        0.4156487461        2.4347895263
 Cd         4.3619496820       -0.9226404360       -7.7308746462
 Cd         6.7428630450       -1.9756647157       -4.2012919700
 Cd         8.5291504586       -2.6208336937       -0.2528792542
 Se        -9.0545012276        0.2427021906        0.9183881514
 Se        -6.3726856938       -0.6565743547        4.4182662066
 Se        -3.9345978735       -1.3490533016        8.2962178259
 Se        -6.5830511260       -3.7425223514        1.3880560152
 Se        -4.5789627064       -4.2748358611        4.8596645031
 Se        -4.6121922117       -7.7762399414        1.5329288231
 Se        -6.6419925314        3.9854494017        0.4578083460
 Se        -4.0717849820        2.6208317696        3.9141963593
 Se        -1.6333695176        2.0116975845        7.9246926400
 Se        -6.7113813024        0.9827301583       -3.1654005290
 Se        -4.4069580607       -0.2111577590        0.3949711009
 Se        -2.0530995708       -1.1153448413        4.2592811519
 Se         0.4059987446       -1.5662590396        8.0647707202
 Se        -4.4159234893       -3.1298725219       -2.8045704061
 Se        -2.2374548947       -4.0915162708        0.9471950522
 Se         0.1530774312       -4.8127052827        4.4857211049
 Se        -2.4165888104       -7.4202441621       -2.0539901439
 Se        -0.0670017953       -7.8788010051        1.3096084570
 Se        -4.5517558406        7.5947621728       -0.0124781667
 Se        -1.8465589593        6.3632621722        3.5399312744
 Se         0.4036678327        5.8261780516        7.5854678171
 Se        -4.4657443056        4.5538757776       -3.3488927883
 Se        -2.0808918318        3.7152247050        0.3431253008
 Se         0.4981224766        2.6970446394        3.7285851817
 Se         2.7717363022        1.9957959076        7.6258209612
 Se        -4.6128418815        2.0746008302       -6.9048486922
 Se        -2.2787734741        0.8534277572       -3.1260947363
 Se         0.0145383277       -0.1632394372        0.3853871383
 Se         2.3130018787       -1.3189234123        3.9988673767
 Se         4.8630890407       -1.8843457203        7.7350425413
 Se        -2.0702531960       -1.9663718842       -6.4602894609
 Se        -0.0447845559       -3.1597911770       -2.8087571247
 Se         2.2323054968       -4.2313210619        0.7808908912
 Se         4.8361803624       -4.9529596288        4.0967161430
 Se        -0.7551667760       -6.2844378843       -5.8413712351
 Se         1.9249697810       -7.4786715652       -2.6074893080
 Se         4.2593999795       -8.3788385983        0.7365389561
 Se         0.0357200044        7.3684849967       -0.4911074767
 Se         2.3807834489        6.5252066690        3.1423007615
 Se         0.0436873106        4.4286995205       -3.5939068725
 Se         2.5162553452        3.6274660445       -0.0567400385
 Se         4.7725521441        2.4662094697        3.1253616507
 Se         0.0455206441        1.9296558546       -6.9703246648
 Se         2.2756584225        0.7647313087       -3.6569522576
 Se         4.3765011110       -0.2854025109       -0.0176779776
 Se         6.9675843100       -1.1294928573        3.5583054999
 Se         2.2367305869       -2.2679472060       -6.6837097354
 Se         4.3734982172       -3.1974260163       -3.2154977795
 Se         6.4330311660       -4.1116366937        0.4131394992
 Se         4.8511780809        7.5523479392       -0.7456942619
 Se         4.8772352136        4.5488543706       -4.0120600586
 Se         7.0853005950        3.5933238999       -0.6427497394
 Se         4.7813481221        1.5262930127       -7.5555136081
 Se         6.9182286495        0.6112014985       -3.7072771303
 Se         9.1066649109       -0.0628239223       -0.0921170837
  C         6.9966372951       -6.9496157028       -2.8612799465
  H         7.7649322095       -7.1224747738       -3.6684216540
  O         5.8435126114       -6.4670629962       -3.1398623683
  O         7.2878642337       -7.2737206638       -1.6930939908
  C         3.3951656714       -6.2671834024       -6.9490595984
  H         4.3444066225       -6.8936096686       -7.0753272229
  O         3.0186147599       -5.7904897149       -5.7815111792
  O         2.6173342454       -6.1684282119       -7.9236617212
  C         6.3106236041       -2.9079259205       -7.4908035990
  H         7.1299137504       -3.7048862282       -7.4466889051
  O         6.0084244121       -2.3178913917       -6.3471463269
  O         5.9388742129       -2.4738413000       -8.6121526635
  C         8.9772682562       -3.3709260896       -3.4295605840
  H         9.9250180562       -3.8774829974       -3.1826003730
  O         8.5677408547       -3.4145173077       -4.6043949343
  O         8.2713233630       -2.6966630846       -2.5198005941
  C         9.7979043850       -4.6251340895        2.1809305526
  H        10.6408655401       -5.3318691344        2.3887999993
  O         9.7466339565       -4.1800301711        0.9924393424
  O         9.0278124570       -4.5677793937        3.1869158201
  C        -2.8216632379       -8.8882600742        5.3598609021
  H        -2.4154187803       -9.9024293192        5.4343946394
  O        -1.9846518839       -7.9303179119        5.0420142978
  O        -4.0904069467       -8.7268658434        5.4040783991
  C         2.9968748605       -8.6914347211        5.2874557201
  H         2.6967725338       -9.0398269484        6.2934215078
  O         1.9991141693       -8.3574028947        4.5591902055
  O         4.2233529097       -8.5999865317        4.9146614737
  C         2.8792095835       -5.7053392950        8.2322825456
  H         2.3955873073       -6.3773024893        8.9303283437
  O         2.2187387952       -4.8085628620        7.6158373015
  O         4.1498437512       -5.9030131048        8.1530031301
  C        -2.5346694403       -5.9173692657        8.5217902913
  H        -2.0052498086       -6.7390725628        9.0096019785
  O        -1.9215141274       -5.2577063056        7.5981698036
  O        -3.6522157313       -5.5079114773        8.8922266142
  C        -6.8630309918        2.3027350570        7.3889599890
  H        -7.2086193538        3.3071349018        7.3885257928
  O        -5.6209185325        2.1588413880        7.5332755717
  O        -7.6690157235        1.3699021741        7.1998827019
  C        -4.1170550094        6.2826932576        7.2280204128
  H        -5.2418933127        6.2896177269        7.3832000201
  O        -3.5262104918        5.2288192226        6.7735237365
  O        -3.5906035274        7.4670337163        7.3176557450
  C        -6.2566587946        7.1460912523        4.0781560063
  H        -7.2111390447        7.1649409639        4.6689854642
  O        -5.8086996609        6.0476093645        3.6276199818
  O        -5.6120880687        8.2202675659        3.8482649338
  C        -9.2740289756        2.9616491725        4.4605356050
  H        -9.7855372140        3.8838940690        4.7760086716
  O        -8.0584654636        3.0117633156        4.1190658582
  O       -10.0805300493        1.9787746133        4.3919784075
  C        -9.6031488822       -3.5281462381        4.2550892503
  H       -10.5971720209       -3.6001750875        4.7566807035
  O        -9.3827134190       -2.7226722158        3.2942882309
  O        -8.6779141539       -4.3012461675        4.7626815432
  C        -5.4081408833       -6.0791069550       -6.1560589555
  H        -6.0546960796       -6.5859836395       -6.8890942905
  O        -5.3105605529       -6.5036742374       -4.9646861030
  O        -4.7977985507       -5.0925235742       -6.6849810404
  C        -7.4874116694       -7.2703693622       -1.8348286624
  H        -7.8388434959       -7.7173330376       -2.7530342297
  O        -6.3884239369       -6.5546317792       -1.8839138275
  O        -8.0711789051       -7.4404762192       -0.7454821222
  C        -9.2560917195       -3.4270685273       -2.1219160414
  H        -9.5270787848       -4.0663584857       -2.9594189931
  O        -8.1694967843       -2.7551896258       -2.2725109993
  O        -9.8237519685       -3.4936854622       -1.0089317100
  C        -6.7206349013       -1.5102657197       -7.0044665440
  H        -7.7450574417       -1.9674181007       -7.1698505571
  O        -6.3192980618       -1.2782137635       -5.7986514405
  O        -6.0626759114       -1.2633796466       -8.0151145687
  C        -1.9627708035        5.6954587722       -7.4851883993
  H        -1.7770888886        6.7764005651       -7.4923242406
  O        -2.4609317851        5.1863271715       -6.4084651222
  O        -1.7565661155        5.0397298192       -8.5278595789
  C        -1.7167585971        9.0073595298       -3.7839285603
  H        -1.3493405476        9.2660238074       -4.8465614694
  O        -1.7703198768        7.7190326716       -3.5243411108
  O        -1.9638347901        9.8890449637       -2.9403518810
  C         2.5061228377        8.6537579247       -4.1272932028
  H         2.7131102182        9.0638249498       -5.0476060874
  O         2.0944641903        7.4527924137       -4.0306838049
  O         2.6625651182        9.4108390732       -3.1547528026
  C         1.7410001877        5.3672253759       -8.1967428503
  H         1.4358383610        6.4416008070       -8.3632925476
  O         2.2781484160        5.0761106442       -7.0401195031
  O         1.5315725181        4.4829025654       -9.0171074231
  C         9.4766570026        2.6096013754        3.9000614644
  H         9.6131090334        3.4671477718        4.5843902861
  O         8.5276241881        2.7171507256        3.0489169949
  O        10.1880916047        1.5398374426        4.0326337407
  C         6.6325766250        7.0381339402        3.3282757010
  H         7.5082674956        7.1289998248        4.0070788575
  O         6.4940127008        6.1600494054        2.4464850106
  O         5.7950182859        7.9027081276        3.5807970735
  C         4.7448155365        5.8524071387        6.9352315200
  H         5.7085862008        5.7040540943        7.4370666698
  O         4.3281760144        4.9883801891        6.0812604188
  O         4.1450723314        6.9221891486        7.1366319607
  C         7.5602977463        1.7452892393        7.1876926550
  H         8.1158840311        2.6116602203        7.6593692779
  O         6.7454412281        2.0299688417        6.2242592911
  O         7.8431843519        0.5818952681        7.5889841623
     227
 i =        2, time =        2.000, E =       -49.3218335811
 Cd        -8.6170834599        0.4786287267        3.4767053593
 Cd        -5.8707228305       -0.2573287851        7.1137880361
 Cd        -8.4091980785       -2.1552383768        0.3836025234
 Cd        -6.8898359841       -3.2939760970        3.9620668085