     227
 i =        0, time =        0.000, E =       -18.7762969705
 Cd        -8.6216924880        0.4810107428        3.4775887729
 Cd        -5.8723589632       -0.2566559957        7.1151373767
 Cd        -8.4076147924       -2.1531404527        0.3867588804
 Cd        -6.8957642261       -3.2896665849        3.9600318291
 Cd        -3.6930098048       -3.6992689615        7.3819491709
 Cd        -6.4429261463       -6.2347087238        0.4622469067
 Cd        -4.3123952394       -6.8285875372        3.9039095072
 Cd        -6.1141073353        3.8626235599        2.9066844924
 Cd        -3.6048790416        2.8797284733        6.5917986711
 Cd        -6.7531255596        1.1841266196       -0.3182182747
 Cd        -4.0437606329        0.0729837467        3.0511954168
 Cd        -1.7753257667       -0.3121054857        6.8316599018
 Cd        -6.3661028473       -1.4630135273       -3.4383357626
 Cd        -4.3602814436       -3.1214810613       -0.1759283953
 Cd        -2.2424276819       -3.6242998489        3.6335413818
 Cd         0.1757294635       -3.9625201566        7.0364714760
 Cd        -4.2692200317       -5.9860442556       -3.0005266361
 Cd        -2.2482225396       -6.7972628816        0.6786391664
 Cd         0.0669003827       -7.3030327295        3.8545421700
 Cd        -4.0792754193        7.4105475565        2.4175118797
 Cd        -1.6116442377        6.4880648240        6.2478272306
 Cd        -4.3308002626        4.8127262164       -0.6762739309
 Cd        -1.8326132452        3.6694977750        3.1598212265
 Cd         0.4939817277        3.1637060931        6.7202662426
 Cd        -4.5980154021        1.9988297698       -4.0880170010
 Cd        -2.1651194586        1.0165564496       -0.4536921834
 Cd         0.1376109507       -0.0659106884        3.1336818174
 Cd         2.6419074521       -0.6636939286        6.8958319365
 Cd        -4.1515129292       -0.5348426091       -6.9620217917
 Cd        -2.2012490343       -1.8491984656       -3.4894107829
 Cd         0.0359311218       -2.8494155653       -0.0264680683
 Cd         2.4407298775       -3.8224684908        3.5289587884
 Cd         4.5907434619       -4.2169180472        6.5928471603
 Cd        -2.6321953796       -4.5685798778       -6.0773989300
 Cd        -0.3638438279       -6.1221236347       -3.0620735359
 Cd         1.9882729153       -6.8506852632       -0.0376753302
 Cd         4.3604701588       -7.5063202656        3.0981086138
 Cd        -2.4313710890        8.2839908015       -1.2010761441
 Cd         0.1210964618        6.7915494583        2.0748938605
 Cd         2.2602783261        6.3879934074        5.9824457591
 Cd        -2.2743307721        5.5403016700       -4.1096429978
 Cd         0.1552258413        4.6164378819       -0.9814446932
 Cd         2.6173372932        3.7540356816        2.4616712460
 Cd         4.3934694910        2.5024270436        5.6448470259
 Cd        -2.3839877703        3.0961459608       -7.5397423510
 Cd        -0.1308699873        1.7716472388       -4.3458913396
 Cd         2.1522040622        0.8595996928       -0.9600505658
 Cd         4.3027041934       -0.4425155449        2.5248589789
 Cd         6.4943132815       -0.6514444341        6.0110723312
 Cd         0.4032906214       -0.5920449882       -7.0625722312
 Cd         2.1504065746       -1.8410095193       -3.9631978812
 Cd         4.1282053355       -2.9764966895       -0.5499119195
 Cd         6.9189885741       -3.8001688729        2.8840486736
 Cd         1.0693858855       -4.7693596381       -6.7909688629
 Cd         3.6529341800       -5.7620820022       -3.6150795142
 Cd         5.7341856059       -6.5625995016       -0.3323817960
 Cd         2.4532379782        8.1225833618       -1.1556872380
 Cd         4.4025673150        7.2904811152        1.7928276254
 Cd         2.3800547108        5.2453457502       -4.8107637235
 Cd         4.8184663347        4.7191125514       -1.4277792117
 Cd         6.7589411702        3.8390778732        2.0295448973
 Cd         2.6210634084        2.7844913241       -7.7035228004
 Cd         4.8495943395        1.7843685348       -4.5225056138
 Cd         6.7261500983        1.0662237140       -0.9642295531
 Cd         8.8881450478        0.4141445330        2.4369093904
 Cd         4.3615782352       -0.9213178924       -7.7328888960
 Cd         6.7438649008       -1.9767569930       -4.2031112584
 Cd         8.5272445020       -2.6218905711       -0.2551455218
 Se        -9.0557725106        0.2424574140        0.9180313808
 Se        -6.3745872764       -0.6570220647        4.4225742627
 Se        -3.9358548519       -1.3506397678        8.2925868769
 Se        -6.5830028390       -3.7408669090        1.3890860046
 Se        -4.5802302415       -4.2716541219        4.8585926421
 Se        -4.6110671623       -7.7792240778        1.5343213278
 Se        -6.6407812351        3.9866809498        0.4586064126
 Se        -4.0705866514        2.6241591830        3.9150270775
 Se        -1.6315747320        2.0143859544        7.9219454430
 Se        -6.7106235468        0.9827493806       -3.1628202938
 Se        -4.4077684895       -0.2106461950        0.3970531668
 Se        -2.0534879979       -1.1190641497        4.2604482105
 Se         0.4069246601       -1.5676855049        8.0617057342
 Se        -4.4126107232       -3.1307459794       -2.8028288282
 Se        -2.2371864822       -4.0884616040        0.9473336128
 Se         0.1541797359       -4.8148952714        4.4843326207
 Se        -2.4147106009       -7.4199706225       -2.0529393442
 Se        -0.0662571417       -7.8800811154        1.3078284855
 Se        -4.5519687636        7.5920037884       -0.0122560791
 Se        -1.8482840651        6.3647212661        3.5390459072
 Se         0.4006735392        5.8241498358        7.5878867146
 Se        -4.4655945585        4.5529209660       -3.3484418515
 Se        -2.0798083538        3.7153034916        0.3451575142
 Se         0.4973892782        2.6967113851        3.7286137790
 Se         2.7724753484        1.9958260876        7.6298945277
 Se        -4.6126224962        2.0736182894       -6.9031574659
 Se        -2.2770211290        0.8531533747       -3.1284312065
 Se         0.0138865169       -0.1636477002        0.3858468104
 Se         2.3115473387       -1.3198431962        4.0017354986
 Se         4.8624545925       -1.8855864388        7.7371297607
 Se        -2.0700877949       -1.9675257511       -6.4603372509
 Se        -0.0447057629       -3.1582708631       -2.8090856920
 Se         2.2343306950       -4.2299664240        0.7817840723
 Se         4.8342987615       -4.9516929708        4.0974643468
 Se        -0.7556003326       -6.2829108386       -5.8406699955
 Se         1.9243057511       -7.4784768035       -2.6074198353
 Se         4.2543989663       -8.3809591814        0.7363809319
 Se         0.0386925703        7.3677075300       -0.4939635450
 Se         2.3791568525        6.5289221229        3.1400383851
 Se         0.0465974103        4.4270318221       -3.5936563407
 Se         2.5167269427        3.6273521599       -0.0581806204
 Se         4.7705604635        2.4670139639        3.1233546104
 Se         0.0435933033        1.9323944164       -6.9695738842
 Se         2.2733127965        0.7623703678       -3.6584263160
 Se         4.3816175435       -0.2841549253       -0.0177063702
 Se         6.9670500347       -1.1290204494        3.5565582379
 Se         2.2410869402       -2.2702007814       -6.6798205275
 Se         4.3723294721       -3.1971869108       -3.2130677403
 Se         6.4331938555       -4.1098532443        0.4136420186
 Se         4.8503033307        7.5509093293       -0.7463548497
 Se         4.8776288797        4.5477652435       -4.0091414448
 Se         7.0830986217        3.5950723552       -0.6434567968
 Se         4.7810064642        1.5273410534       -7.5566303287
 Se         6.9188050062        0.6130038217       -3.7081238627
 Se         9.1066871843       -0.0609359671       -0.0919647969
  C         6.9955771113       -6.9586634775       -2.8583426301
  H         7.7780160969       -7.1271873265       -3.6573399650
  O         5.8389952916       -6.4652991204       -3.1445809228
  O         7.2920676004       -7.2683568805       -1.6893132711
  C         3.3939431960       -6.2668607509       -6.9513074648
  H         4.3245440932       -6.8689211647       -7.0591687882
  O         3.0202466073       -5.7860511295       -5.7843136273
  O         2.6220129789       -6.1746538788       -7.9242101403
  C         6.3116555909       -2.9071154185       -7.4921130606
  H         7.0978863851       -3.7212906458       -7.4285512081
  O         6.0096715894       -2.3219711192       -6.3505932827
  O         5.9403243477       -2.4750431756       -8.6116316973
  C         8.9837561036       -3.3697375837       -3.4349055328
  H         9.9249943929       -3.8864043165       -3.1840078659
  O         8.5659407989       -3.4209184445       -4.6048832464
  O         8.2714489672       -2.6971151254       -2.5207012617
  C         9.7902109758       -4.6282247391        2.1768529346
  H        10.6284324694       -5.3337138149        2.3552924638
  O         9.7484501532       -4.1824896055        0.9942458601
  O         9.0219926648       -4.5705851174        3.1873629795
  C        -2.8252708508       -8.8894178348        5.3653894160
  H        -2.3915771747       -9.8892286280        5.4446685031
  O        -1.9808601030       -7.9304545651        5.0436955975
  O        -4.0908415257       -8.7280019527        5.4030844137
  C         3.0047406823       -8.6887063298        5.2919739424
  H         2.6853413808       -9.0312323512        6.2714246943
  O         1.9985977812       -8.3553887881        4.5599054594
  O         4.2197147413       -8.6069092298        4.9235206312
  C         2.8732291572       -5.7090624943        8.2322507888
  H         2.4095730423       -6.3582442170        8.9295273658
  O         2.2236878889       -4.8031284854        7.6183804854
  O         4.1525405945       -5.8988692439        8.1468427445
  C        -2.5324052264       -5.9090323801        8.5168983878
  H        -2.0058427467       -6.7599986745        9.0204193621
  O        -1.9189018681       -5.2527647032        7.5983339134
  O        -3.6521974131       -5.4981014961        8.8936623702
  C        -6.8661340661        2.3082426882        7.3884767521
  H        -7.2433530482        3.2983326111        7.3747512577
  O        -5.6189307919        2.1553364867        7.5292857639
  O        -7.6694328727        1.3672322100        7.2032576312
  C        -4.1128935570        6.2776012356        7.2258109093
  H        -5.2184092536        6.2949225170        7.4003980339
  O        -3.5215502414        5.2331222329        6.7794929280
  O        -3.5956064510        7.4679880815        7.3184340370
  C        -6.2584500423        7.1467273309        4.0778865765
  H        -7.2018864753        7.1620259062        4.6862261037
  O        -5.8042352338        6.0508881806        3.6277903665
  O        -5.6141473350        8.2227071687        3.8530055117
  C        -9.2670155991        2.9624473135        4.4549609073
  H        -9.7760873251        3.8307467380        4.7753730710
  O        -8.0580447847        3.0137717908        4.1153681461
  O       -10.0869615960        1.9755230626        4.3964141791
  C        -9.5997958208       -3.5202239981        4.2555074891
  H       -10.6284324694       -3.6062117458        4.7363993397
  O        -9.3836198173       -2.7271085544        3.2939504316
  O        -8.6749593009       -4.3055307223        4.7674147240
  C        -5.4063829718       -6.0836320759       -6.1576393485
  H        -6.0390997038       -6.5934387315       -6.8768176703
  O        -5.3157147411       -6.5042627408       -4.9638375967
  O        -4.7997118332       -5.0931497246       -6.6842330004
  C        -7.4812021438       -7.2683192216       -1.8337008205
  H        -7.8430239833       -7.7214409635       -2.7403108931
  O        -6.3847231004       -6.5596142310       -1.8855223803
  O        -8.0870004405       -7.4369608581       -0.7449951352
  C        -9.2637717352       -3.4248031045       -2.1287629167
  H        -9.5435102925       -4.0726156799       -2.9624854104
  O        -8.1685743898       -2.7562864935       -2.2769679175
  O        -9.8293124780       -3.4993302663       -1.0042472880
  C        -6.7198117275       -1.5155721631       -7.0057360974
  H        -7.7266400310       -1.9701098143       -7.1795729881
  O        -6.3208037730       -1.2812141421       -5.7891801227
  O        -6.0546670581       -1.2647410752       -8.0219575549
  C        -1.9610306020        5.6962737072       -7.4797868569
  H        -1.8068881661        6.7616764611       -7.4798700689
  O        -2.4613788677        5.1953402046       -6.4147373301
  O        -1.7592038190        5.0404242691       -8.5376948407
  C        -1.7153677193        9.0065729983       -3.7807068554
  H        -1.3518565997        9.2891789052       -4.8285272378
  O        -1.7735635219        7.7204009534       -3.5311974415
  O        -1.9589811591        9.8892286280       -2.9296575010
  C         2.5176986766        8.6527359013       -4.1276241396
  H         2.7356319561        9.0838176512       -5.0545617483
  O         2.0941304229        7.4607563111       -4.0382054964
  O         2.6632020791        9.4136986823       -3.1567247192
  C         1.7405814703        5.3615037054       -8.2026998584
  H         1.4592813282        6.4433815072       -8.3446733349
  O         2.2712544771        5.0744229803       -7.0359036782
  O         1.5374971892        4.4786315137       -9.0204193621
  C         9.4791869119        2.6134878200        3.9079418032
  H         9.6264681644        3.4611325178        4.5867541287
  O         8.5294682966        2.7206869475        3.0468687327
  O        10.1884170796        1.5361363159        4.0354546634
  C         6.6320899766        7.0427804887        3.3240585285
  H         7.5183451153        7.1103565644        4.0025867163
  O         6.4921259472        6.1579139584        2.4473334656
  O         5.8014508194        7.8970951585        3.5804466065
  C         4.7468288793        5.8510846562        6.9391041765
  H         5.6837062732        5.7110173508        7.4566454645
  O         4.3315486404        4.9881730889        6.0840680113
  O         4.1390624477        6.9214380767        7.1338855679
  C         7.5642974957        1.7429307679        7.1823006621
  H         8.1116275708        2.6102062210        7.6466333920
  O         6.7423080014        2.0330978891        6.2208765696
  O         7.8434776238        0.5800715711        7.5931108165
     227
 i =        1, time =        1.000, E =       -18.7859205525
 Cd        -8.6193432189        0.4796519648        3.4771806386
 Cd        -5.8715648280       -0.2571669780        7.1143900973
 Cd        -8.4082378393       -2.1541582713        0.3852166215
 Cd        -6.8927290526       -3.2917935826        3.9610952026
 Cd        -3.6901787507       -3.7004195944        7.3823860349
 Cd        -6.4419928293       -6.2357670490        0.4642611583
 Cd        -4.3123460646       -6.8296328875        3.9052464536
 Cd        -6.1164044890        3.8609355678        2.9055961032
 Cd        -3.6066511537        2.8812437934        6.5904087498
 Cd        -6.7534389682        1.1872474776       -0.3192295269
 Cd        -4.0444450064        0.0755197538        3.0501864506
 Cd        -1.7741832593       -0.3125933164        6.8335997489
 Cd        -6.3661157061       -1.4624703067       -3.4401825210
 Cd        -4.3613725011       -3.1217742672       -0.1745454697
 Cd        -2.2426130617       -3.6215891866        3.6336141812
 Cd         0.1786954021       -3.9616043597        7.0369491032
 Cd        -4.2694043865       -5.9882221454       -2.9988713857
 Cd        -2.2487294049       -6.7966289474        0.6791479484
 Cd         0.0677812419       -7.3030220561        3.8542433625
 Cd        -4.0802992189        7.4119262102        2.4183027975
 Cd        -1.6108225844        6.4879449426        6.2509645594
 Cd        -4.3325508770        4.8128198251       -0.6769583769
 Cd        -1.8304057461        3.6696107299        3.1589328733
 Cd         0.4898075101        3.1633382208        6.7205458719
 Cd        -4.5996245153        2.0001273500       -4.0890316527
 Cd        -2.1629139630        1.0181418767       -0.4517600555
 Cd         0.1384317629       -0.0681609204        3.1344215781
 Cd         2.6424389756       -0.6635558077        6.8959175217
 Cd        -4.1541120295       -0.5351494386       -6.9611326189
 Cd        -2.2031905962       -1.8490924915       -3.4900420881
 Cd         0.0358046212       -2.8475051948       -0.0251021840
 Cd         2.4397167288       -3.8215822736        3.5304613562
 Cd         4.5938285437       -4.2152126668        6.5947016819
 Cd        -2.6317197709       -4.5699772540       -6.0785514200
 Cd        -0.3609601514       -6.1210714888       -3.0631451496
 Cd         1.9864119812       -6.8523629972       -0.0374590763
 Cd         4.3578651794       -7.5050255677        3.0974013290
 Cd        -2.4320326345        8.2867441516       -1.2003929449
 Cd         0.1211453078        6.7911592956        2.0747640886
 Cd         2.2581345641        6.3879419628        5.9826324822
 Cd        -2.2740269244        5.5405678008       -4.1121468398
 Cd         0.1544553832        4.6148770708       -0.9823414753
 Cd         2.6165207041        3.7533695609        2.4610544190
 Cd         4.3939450180        2.5015477584        5.6447229144
 Cd        -2.3864618132        3.0937365340       -7.5398995045
 Cd        -0.1312613319        1.7709423280       -4.3474206702
 Cd         2.1531850949        0.8600377267       -0.9632095753
 Cd         4.3034970350       -0.4402459026        2.5248308249
 Cd         6.4920424520       -0.6517560641        6.0105244862
 Cd         0.4042352003       -0.5927871744       -7.0621436110
 Cd         2.1513221765       -1.8411176182       -3.9633411649
 Cd         4.1300002163       -2.9780194229       -0.5482400981
 Cd         6.9198298529       -3.7969691615        2.8855527659
 Cd         1.0695922534       -4.7692029069       -6.7906815449
 Cd         3.6506508850       -5.7625263019       -3.6177211362
 Cd         5.7329657235       -6.5640179277       -0.3327874772
 Cd         2.4550978360        8.1223196645       -1.1566552937
 Cd         4.4053894261        7.2898006495        1.7948378088
 Cd         2.3804086911        5.2452295585       -4.8087123934
 Cd         4.8189853660        4.7184727132       -1.4284005050
 Cd         6.7582521758        3.8401640916        2.0311449502
 Cd         2.6217660200        2.7829439706       -7.7033851955
 Cd         4.8493294158        1.7846917962       -4.5231478099
 Cd         6.7277326338        1.0649967746       -0.9631243456
 Cd         8.8867496257        0.4155917394        2.4348105304
 Cd         4.3618237590       -0.9226683495       -7.7309215573
 Cd         6.7427855220       -1.9756334220       -4.2012659979
 Cd         8.5291427415       -2.6208114504       -0.2528004919
 Se        -9.0547700881        0.2429001970        0.9183056918
 Se        -6.3727584108       -0.6564975620        4.4183127820
 Se        -3.9345204007       -1.3489511897        8.2965475465
 Se        -6.5831057867       -3.7425458995        1.3880511680
 Se        -4.5790498705       -4.2748783754        4.8597506189
 Se        -4.6122361521       -7.7765797659        1.5328405277
 Se        -6.6422624845        3.9855380453        0.4576584853
 Se        -4.0719370829        2.6208390410        3.9143063368
 Se        -1.6333001542        2.0117688763        7.9251106091
 Se        -6.7117107798        0.9829183849       -3.1654216326
 Se        -4.4070652588       -0.2111937607        0.3949016216
 Se        -2.0531063680       -1.1153254068        4.2593842582
 Se         0.4059952624       -1.5661733529        8.0650590104
 Se        -4.4160557801       -3.1300051519       -2.8046780374
 Se        -2.2374180744       -4.0915784460        0.9472102643
 Se         0.1530445744       -4.8127309102        4.4858044218
 Se        -2.4165622080       -7.4206069359       -2.0539454657
 Se        -0.0669223838       -7.8791399339        1.3095657150
 Se        -4.5521326763        7.5948375200       -0.0126329019
 Se        -1.8467784145        6.3633079283        3.5401010753
 Se         0.4037071660        5.8261523791        7.5858918460
 Se        -4.4660414923        4.5539631972       -3.3489407351
 Se        -2.0809593793        3.7152359163        0.3431638600
 Se         0.4982253535        2.6969879299        3.7286952361
 Se         2.7717869473        1.9958599445        7.6261783290
 Se        -4.6131804506        2.0747411904       -6.9049047860
 Se        -2.2788796588        0.8534948670       -3.1261076011
 Se         0.0145721664       -0.1632329854        0.3854060497
 Se         2.3129828739       -1.3188800383        3.9990252068
 Se         4.8631624233       -1.8843053874        7.7353862482
 Se        -2.0701839380       -1.9664163185       -6.4603696343
 Se        -0.0447077613       -3.1599285269       -2.8087798521
 Se         2.2323094986       -4.2314432943        0.7809340039
 Se         4.8362336003       -4.9530998340        4.0967246537
 Se        -0.7551539986       -6.2848243882       -5.8413893844
 Se         1.9250049447       -7.4790149976       -2.6076261214
 Se         4.2593607353       -8.3791929711        0.7363964604
 Se         0.0356413203        7.3686116557       -0.4913012412
 Se         2.3809206459        6.5252098896        3.1425051864
 Se         0.0437353814        4.4288048340       -3.5940064681
 Se         2.5163647177        3.6274421278       -0.0568937432
 Se         4.7727063141        2.4661585756        3.1253222442
 Se         0.0455150089        1.9299511382       -6.9705180256
 Se         2.2758163084        0.7648402742       -3.6570460892
 Se         4.3766441856       -0.2853737197       -0.0178248406
 Se         6.9676968356       -1.1294610071        3.5582211117
 Se         2.2369857507       -2.2681829567       -6.6837737963
 Se         4.3737108950       -3.1974787787       -3.2156415915
 Se         6.4331270285       -4.1116880472        0.4129553440
 Se         4.8515608814        7.5524050099       -0.7459004456
 Se         4.8774452479        4.5489682811       -4.0122544919
 Se         7.0855826279        3.5934797245       -0.6428581927
 Se         4.7817091094        1.5264447135       -7.5555391498
 Se         6.9185601696        0.6112105923       -3.7073441633
 Se         9.1068715823       -0.0627091057       -0.0923229954
  C         6.9966681783       -6.9497844403       -2.8612721277
  H         7.7649322095       -7.1224747738       -3.6684216540
  O         5.8440019966       -6.4672338247       -3.1400107399
  O         7.2886392905       -7.2741585627       -1.6937211911
  C         3.3950905456       -6.2672757710       -6.9491509186
  H         4.3444066225       -6.8936096686       -7.0753272229
  O         3.0187822780       -5.7908301761       -5.7820635033
  O         2.6176850210       -6.1688526570       -7.9239537212
  C         6.3106268695       -2.9078693066       -7.4909931332
  H         7.1299137504       -3.7048862282       -7.4466889051
  O         6.0084794122       -2.3181568272       -6.3475224048
  O         5.9393070197       -2.4742068021       -8.6124270291
  C         8.9774036810       -3.3708919648       -3.4296269412
  H         9.9250180562       -3.8774829974       -3.1826003730
  O         8.5682295368       -3.4148537224       -4.6045831909
  O         8.2716746459       -2.6967247514       -2.5201156362
  C         9.7980324165       -4.6251843309        2.1809813397
  H        10.6408655401       -5.3318691344        2.3887999993
  O         9.7470819220       -4.1804730426        0.9926308458
  O         9.0286121975       -4.5681183632        3.1870441613
  C        -2.8217142912       -8.8883940549        5.3598600218
  H        -2.4154187803       -9.9024293192        5.4343946394
  O        -1.9847706415       -7.9305867090        5.0422829958
  O        -4.0904430149       -8.7273535189        5.4043776837
  C         2.9969102115       -8.6915760385        5.2874338324
  H         2.6967725338       -9.0398269484        6.2934215078
  O         1.9994177248       -8.3578289065        4.5594149405
  O         4.2233305644       -8.6007120034        4.9157364043
  C         2.8792808807       -5.7053300264        8.2323918908
  H         2.3955873073       -6.3773024893        8.9303283437
  O         2.2190787448       -4.8088436218        7.6162790679
  O         4.1498125307       -5.9034640910        8.1535459397
  C        -2.5347024035       -5.9173531577        8.5219532359
  H        -2.0052498086       -6.7390725628        9.0096019785
  O        -1.9213826460       -5.2582773305        7.5983158081
  O        -3.6522333593       -5.5083814754        8.8927110690
  C        -6.8630588544        2.3027131606        7.3891458386
  H        -7.2086193538        3.3071349018        7.3885257928
  O        -5.6213227982        2.1590612841        7.5336634447
  O        -7.6694768634        1.3702288677        7.1999407656
  C        -4.1170109228        6.2827768957        7.2281494090
  H        -5.2418933127        6.2896177269        7.3832000201
  O        -3.5266654198        5.2290349972        6.7737993918
  O        -3.5910131526        7.4672816526        7.3179832363
  C        -6.2567223314        7.1462060707        4.0781082363
  H        -7.2111390447        7.1649409639        4.6689854642
  O        -5.8089745316        6.0479171304        3.6278794278
  O        -5.6127629327        8.2206988822        3.8487631756
  C        -9.2741737875        2.9617307194        4.4604914125
  H        -9.7855372140        3.8838940690        4.7760086716
  O        -8.0587885321        3.0118564354        4.1192610900
  O       -10.0810836271        1.9792717195        4.3922198812
  C        -9.6032479809       -3.5282022725        4.2551481486
  H       -10.5971720209       -3.6001750875        4.7566807035
  O        -9.3831726570       -2.7227555802        3.2942763238
  O        -8.6787093273       -4.3017328132        4.7630335328
  C        -5.4081388952       -6.0792032667       -6.1561618032
  H        -6.0546960796       -6.5859836395       -6.8890942905
  O        -5.3110087570       -6.5040341322       -4.9652424252
  O        -4.7984101847       -5.0927280448       -6.6852698908
  C        -7.4874739471       -7.2705240676       -1.8348024714
  H        -7.8388434959       -7.7173330376       -2.7530342297
  O        -6.3887161069       -6.5549310117       -1.8842862060
  O        -8.0716435768       -7.4408618071       -0.7458022645
  C        -9.2562333310       -3.4270150552       -2.1219614655
  H        -9.5270787848       -4.0663584857       -2.9594189931
  O        -8.1697799669       -2.7553758393       -2.2726448948
  O        -9.8241607648       -3.4939468499       -1.0091926111
  C        -6.7206919387       -1.5101735790       -7.0045684402
  H        -7.7450574417       -1.9674181007       -7.1698505571
  O        -6.3197186053       -1.2781499339       -5.7990523820
  O        -6.0633044673       -1.2635070437       -8.0155029383
  C        -1.9628757558        5.6954828398       -7.4852872310
  H        -1.7770888886        6.7764005651       -7.4923242406
  O        -2.4611320605        5.1866954711       -6.4087474302
  O        -1.7563874946        5.0404355714       -8.5283294740
  C        -1.7168619534        9.0074745146       -3.7839173645
  H        -1.3493405476        9.2660238074       -4.8465614694
  O        -1.7700807725        7.7195190677       -3.5245719441
  O        -1.9637575779        9.8895092837       -2.9407841207
  C         2.5062130416        8.6538576743       -4.1272912068
  H         2.7131102182        9.0638249498       -5.0476060874
  O         2.0944524411        7.4532472492       -4.0306724698
  O         2.6627137134        9.4111411825       -3.1552057140
  C         1.7411221128        5.3672388212       -8.1968384451
  H         1.4358383610        6.4416008070       -8.3632925476
  O         2.2781319154        5.0765439953       -7.0408248224
  O         1.5312897808        4.4833151379       -9.0175178607
  C         9.4768321863        2.6096217323        3.9000134428
  H         9.6131090334        3.4671477718        4.5843902861
  O         8.5280138165        2.7173161840        3.0492043303
  O        10.1885059688        1.5401357546        4.0330717991
  C         6.6326415555        7.0382667582        3.3282192720
  H         7.5082674956        7.1289998248        4.0070788575
  O         6.4944078000        6.1604099655        2.4465804839
  O         5.7954531060        7.9029707154        3.5812666176
  C         4.7447780181        5.8524660754        6.9353613041
  H         5.7085862008        5.7040540943        7.4370666698
  O         4.3285273506        4.9885250194        6.0814702990
  O         4.1457084212        6.9224074321        7.1371503483
  C         7.5603288455        1.7452828020        7.1878407697
  H         8.1158840311        2.6116602203        7.6593692779
  O         6.7458235770        2.0301716917        6.2244277858
  O         7.8434766755        0.5821311096        7.5894469197
     227
 i =        2, time =        2.000, E =       -18.8017655640
 Cd        -8.6170006053        0.4783562344        3.4768102199
 Cd        -5.8708802912       -0.2575428050        7.1136242183
 Cd        -8.4089542825       -2.1552684965        0.3836022074
 Cd        -6.8896881462       -3.2938749821        3.9621394332