     227
 i =        0, time =        0.000, E =        12.0519277060
 Cd        -8.6216924880        0.4810107428        3.4775887729
 Cd        -5.8723589632       -0.2566559957        7.1151373767
 Cd        -8.4076147924       -2.1531404527        0.3867588804
 Cd        -6.8957642261       -3.2896665849        3.9600318291
 Cd        -3.6930098048       -3.6992689615        7.3819491709
 Cd        -6.4429261463       -6.2347087238        0.4622469067
 Cd        -4.3123952394       -6.8285875372        3.9039095072
 Cd        -6.1141073353        3.8626235599        2.9066844924
 Cd        -3.6048790416        2.8797284733        6.5917986711
 Cd        -6.7531255596        1.1841266196       -0.3182182747
 Cd        -4.0437606329        0.0729837467        3.0511954168
 Cd        -1.7753257667       -0.3121054857        6.8316599018
 Cd        -6.3661028473       -1.4630135273       -3.4383357626
 Cd        -4.3602814436       -3.1214810613       -0.1759283953
 Cd        -2.2424276819       -3.6242998489        3.6335413818
 Cd         0.1757294635       -3.9625201566        7.0364714760
 Cd        -4.2692200317       -5.9860442556       -3.0005266361
 Cd        -2.2482225396       -6.7972628816        0.6786391664
 Cd         0.0669003827       -7.3030327295        3.8545421700
 Cd        -4.0792754193        7.4105475565        2.4175118797
 Cd        -1.6116442377        6.4880648240        6.2478272306
 Cd        -4.3308002626        4.8127262164       -0.6762739309
 Cd        -1.8326132452        3.6694977750        3.1598212265
 Cd         0.4939817277        3.1637060931        6.7202662426
 Cd        -4.5980154021        1.9988297698       -4.0880170010
 Cd        -2.1651194586        1.0165564496       -0.4536921834
 Cd         0.1376109507       -0.0659106884        3.1336818174
 Cd         2.6419074521       -0.6636939286        6.8958319365
 Cd        -4.1515129292       -0.5348426091       -6.9620217917
 Cd        -2.2012490343       -1.8491984656       -3.4894107829
 Cd         0.0359311218       -2.8494155653       -0.0264680683
 Cd         2.4407298775       -3.8224684908        3.5289587884
 Cd         4.5907434619       -4.2169180472        6.5928471603
 Cd        -2.6321953796       -4.5685798778       -6.0773989300
 Cd        -0.3638438279       -6.1221236347       -3.0620735359
 Cd         1.9882729153       -6.8506852632       -0.0376753302
 Cd         4.3604701588       -7.5063202656        3.0981086138
 Cd        -2.4313710890        8.2839908015       -1.2010761441
 Cd         0.1210964618        6.7915494583        2.0748938605
 Cd         2.2602783261        6.3879934074        5.9824457591
 Cd        -2.2743307721        5.5403016700       -4.1096429978
 Cd         0.1552258413        4.6164378819       -0.9814446932
 Cd         2.6173372932        3.7540356816        2.4616712460
 Cd         4.3934694910        2.5024270436        5.6448470259
 Cd        -2.3839877703        3.0961459608       -7.5397423510
 Cd        -0.1308699873        1.7716472388       -4.3458913396
 Cd         2.1522040622        0.8595996928       -0.9600505658
 Cd         4.3027041934       -0.4425155449        2.5248589789
 Cd         6.4943132815       -0.6514444341        6.0110723312
 Cd         0.4032906214       -0.5920449882       -7.0625722312
 Cd         2.1504065746       -1.8410095193       -3.9631978812
 Cd         4.1282053355       -2.9764966895       -0.5499119195
 Cd         6.9189885741       -3.8001688729        2.8840486736
 Cd         1.0693858855       -4.7693596381       -6.7909688629
 Cd         3.6529341800       -5.7620820022       -3.6150795142
 Cd         5.7341856059       -6.5625995016       -0.3323817960
 Cd         2.4532379782        8.1225833618       -1.1556872380
 Cd         4.4025673150        7.2904811152        1.7928276254
 Cd         2.3800547108        5.2453457502       -4.8107637235
 Cd         4.8184663347        4.7191125514       -1.4277792117
 Cd         6.7589411702        3.8390778732        2.0295448973
 Cd         2.6210634084        2.7844913241       -7.7035228004
 Cd         4.8495943395        1.7843685348       -4.5225056138
 Cd         6.7261500983        1.0662237140       -0.9642295531
 Cd         8.8881450478        0.4141445330        2.4369093904
 Cd         4.3615782352       -0.9213178924       -7.7328888960
 Cd         6.7438649008       -1.9767569930       -4.2031112584
 Cd         8.5272445020       -2.6218905711       -0.2551455218
 Se        -9.0557725106        0.2424574140        0.9180313808
 Se        -6.3745872764       -0.6570220647        4.4225742627
 Se        -3.9358548519       -1.3506397678        8.2925868769
 Se        -6.5830028390       -3.7408669090        1.3890860046
 Se        -4.5802302415       -4.2716541219        4.8585926421
 Se        -4.6110671623       -7.7792240778        1.5343213278
 Se        -6.6407812351        3.9866809498        0.4586064126
 Se        -4.0705866514        2.6241591830        3.9150270775
 Se        -1.6315747320        2.0143859544        7.9219454430
 Se        -6.7106235468        0.9827493806       -3.1628202938
 Se        -4.4077684895       -0.2106461950        0.3970531668
 Se        -2.0534879979       -1.1190641497        4.2604482105
 Se         0.4069246601       -1.5676855049        8.0617057342
 Se        -4.4126107232       -3.1307459794       -2.8028288282
 Se        -2.2371864822       -4.0884616040        0.9473336128
 Se         0.1541797359       -4.8148952714        4.4843326207
 Se        -2.4147106009       -7.4199706225       -2.0529393442
 Se        -0.0662571417       -7.8800811154        1.3078284855
 Se        -4.5519687636        7.5920037884       -0.0122560791
 Se        -1.8482840651        6.3647212661        3.5390459072
 Se         0.4006735392        5.8241498358        7.5878867146
 Se        -4.4655945585        4.5529209660       -3.3484418515
 Se        -2.0798083538        3.7153034916        0.3451575142
 Se         0.4973892782        2.6967113851        3.7286137790
 Se         2.7724753484        1.9958260876        7.6298945277
 Se        -4.6126224962        2.0736182894       -6.9031574659
 Se        -2.2770211290        0.8531533747       -3.1284312065
 Se         0.0138865169       -0.1636477002        0.3858468104
 Se         2.3115473387       -1.3198431962        4.0017354986
 Se         4.8624545925       -1.8855864388        7.7371297607
 Se        -2.0700877949       -1.9675257511       -6.4603372509
 Se        -0.0447057629       -3.1582708631       -2.8090856920
 Se         2.2343306950       -4.2299664240        0.7817840723
 Se         4.8342987615       -4.9516929708        4.0974643468
 Se        -0.7556003326       -6.2829108386       -5.8406699955
 Se         1.9243057511       -7.4784768035       -2.6074198353
 Se         4.2543989663       -8.3809591814        0.7363809319
 Se         0.0386925703        7.3677075300       -0.4939635450
 Se         2.3791568525        6.5289221229        3.1400383851
 Se         0.0465974103        4.4270318221       -3.5936563407
 Se         2.5167269427        3.6273521599       -0.0581806204
 Se         4.7705604635        2.4670139639        3.1233546104
 Se         0.0435933033        1.9323944164       -6.9695738842
 Se         2.2733127965        0.7623703678       -3.6584263160
 Se         4.3816175435       -0.2841549253       -0.0177063702
 Se         6.9670500347       -1.1290204494        3.5565582379
 Se         2.2410869402       -2.2702007814       -6.6798205275
 Se         4.3723294721       -3.1971869108       -3.2130677403
 Se         6.4331938555       -4.1098532443        0.4136420186
 Se         4.8503033307        7.5509093293       -0.7463548497
 Se         4.8776288797        4.5477652435       -4.0091414448
 Se         7.0830986217        3.5950723552       -0.6434567968
 Se         4.7810064642        1.5273410534       -7.5566303287
 Se         6.9188050062        0.6130038217       -3.7081238627
 Se         9.1066871843       -0.0609359671       -0.0919647969
  C         6.9955771113       -6.9586634775       -2.8583426301
  H         7.7780160969       -7.1271873265       -3.6573399650
  O         5.8389952916       -6.4652991204       -3.1445809228
  O         7.2920676004       -7.2683568805       -1.6893132711
  C         3.3939431960       -6.2668607509       -6.9513074648
  H         4.3245440932       -6.8689211647       -7.0591687882
  O         3.0202466073       -5.7860511295       -5.7843136273
  O         2.6220129789       -6.1746538788       -7.9242101403
  C         6.3116555909       -2.9071154185       -7.4921130606
  H         7.0978863851       -3.7212906458       -7.4285512081
  O         6.0096715894       -2.3219711192       -6.3505932827
  O         5.9403243477       -2.4750431756       -8.6116316973
  C         8.9837561036       -3.3697375837       -3.4349055328
  H         9.9249943929       -3.8864043165       -3.1840078659
  O         8.5659407989       -3.4209184445       -4.6048832464
  O         8.2714489672       -2.6971151254       -2.5207012617
  C         9.7902109758       -4.6282247391        2.1768529346
  H        10.6284324694       -5.3337138149        2.3552924638
  O         9.7484501532       -4.1824896055        0.9942458601
  O         9.0219926648       -4.5705851174        3.1873629795
  C        -2.8252708508       -8.8894178348        5.3653894160
  H        -2.3915771747       -9.8892286280        5.4446685031
  O        -1.9808601030       -7.9304545651        5.0436955975
  O        -4.0908415257       -8.7280019527        5.4030844137
  C         3.0047406823       -8.6887063298        5.2919739424
  H         2.6853413808       -9.0312323512        6.2714246943
  O         1.9985977812       -8.3553887881        4.5599054594
  O         4.2197147413       -8.6069092298        4.9235206312
  C         2.8732291572       -5.7090624943        8.2322507888
  H         2.4095730423       -6.3582442170        8.9295273658
  O         2.2236878889       -4.8031284854        7.6183804854
  O         4.1525405945       -5.8988692439        8.1468427445
  C        -2.5324052264       -5.9090323801        8.5168983878
  H        -2.0058427467       -6.7599986745        9.0204193621
  O        -1.9189018681       -5.2527647032        7.5983339134
  O        -3.6521974131       -5.4981014961        8.8936623702
  C        -6.8661340661        2.3082426882        7.3884767521
  H        -7.2433530482        3.2983326111        7.3747512577
  O        -5.6189307919        2.1553364867        7.5292857639
  O        -7.6694328727        1.3672322100        7.2032576312
  C        -4.1128935570        6.2776012356        7.2258109093
  H        -5.2184092536        6.2949225170        7.4003980339
  O        -3.5215502414        5.2331222329        6.7794929280
  O        -3.5956064510        7.4679880815        7.3184340370
  C        -6.2584500423        7.1467273309        4.0778865765
  H        -7.2018864753        7.1620259062        4.6862261037
  O        -5.8042352338        6.0508881806        3.6277903665
  O        -5.6141473350        8.2227071687        3.8530055117
  C        -9.2670155991        2.9624473135        4.4549609073
  H        -9.7760873251        3.8307467380        4.7753730710
  O        -8.0580447847        3.0137717908        4.1153681461
  O       -10.0869615960        1.9755230626        4.3964141791
  C        -9.5997958208       -3.5202239981        4.2555074891
  H       -10.6284324694       -3.6062117458        4.7363993397
  O        -9.3836198173       -2.7271085544        3.2939504316
  O        -8.6749593009       -4.3055307223        4.7674147240
  C        -5.4063829718       -6.0836320759       -6.1576393485
  H        -6.0390997038       -6.5934387315       -6.8768176703
  O        -5.3157147411       -6.5042627408       -4.9638375967
  O        -4.7997118332       -5.0931497246       -6.6842330004
  C        -7.4812021438       -7.2683192216       -1.8337008205
  H        -7.8430239833       -7.7214409635       -2.7403108931
  O        -6.3847231004       -6.5596142310       -1.8855223803
  O        -8.0870004405       -7.4369608581       -0.7449951352
  C        -9.2637717352       -3.4248031045       -2.1287629167
  H        -9.5435102925       -4.0726156799       -2.9624854104
  O        -8.1685743898       -2.7562864935       -2.2769679175
  O        -9.8293124780       -3.4993302663       -1.0042472880
  C        -6.7198117275       -1.5155721631       -7.0057360974
  H        -7.7266400310       -1.9701098143       -7.1795729881
  O        -6.3208037730       -1.2812141421       -5.7891801227
  O        -6.0546670581       -1.2647410752       -8.0219575549
  C        -1.9610306020        5.6962737072       -7.4797868569
  H        -1.8068881661        6.7616764611       -7.4798700689
  O        -2.4613788677        5.1953402046       -6.4147373301
  O        -1.7592038190        5.0404242691       -8.5376948407
  C        -1.7153677193        9.0065729983       -3.7807068554
  H        -1.3518565997        9.2891789052       -4.8285272378
  O        -1.7735635219        7.7204009534       -3.5311974415
  O        -1.9589811591        9.8892286280       -2.9296575010
  C         2.5176986766        8.6527359013       -4.1276241396
  H         2.7356319561        9.0838176512       -5.0545617483
  O         2.0941304229        7.4607563111       -4.0382054964
  O         2.6632020791        9.4136986823       -3.1567247192
  C         1.7405814703        5.3615037054       -8.2026998584
  H         1.4592813282        6.4433815072       -8.3446733349
  O         2.2712544771        5.0744229803       -7.0359036782
  O         1.5374971892        4.4786315137       -9.0204193621
  C         9.4791869119        2.6134878200        3.9079418032
  H         9.6264681644        3.4611325178        4.5867541287
  O         8.5294682966        2.7206869475        3.0468687327
  O        10.1884170796        1.5361363159        4.0354546634
  C         6.6320899766        7.0427804887        3.3240585285
  H         7.5183451153        7.1103565644        4.0025867163
  O         6.4921259472        6.1579139584        2.4473334656
  O         5.8014508194        7.8970951585        3.5804466065
  C         4.7468288793        5.8510846562        6.9391041765
  H         5.6837062732        5.7110173508        7.4566454645
  O         4.3315486404        4.9881730889        6.0840680113
  O         4.1390624477        6.9214380767        7.1338855679
  C         7.5642974957        1.7429307679        7.1823006621
  H         8.1116275708        2.6102062210        7.6466333920
  O         6.7423080014        2.0330978891        6.2208765696
  O         7.8434776238        0.5800715711        7.5931108165
     227
 i =        1, time =        1.000, E =        11.8014236935
 Cd        -8.6192377174        0.4794348327        3.4775369897
 Cd        -5.8723740306       -0.2569662799        7.1140600335
 Cd        -8.4082937899       -2.1546284537        0.3848911863
 Cd        -6.8924154246       -3.2913689564        3.9611595725
 Cd        -3.6902497750       -3.7008744278        7.3819933132
 Cd        -6.4422299908       -6.2356319818        0.4643614823
 Cd        -4.3122387169       -6.8294067413        3.9058725107
 Cd        -6.1166938485        3.8608796656        2.9063629370
 Cd        -3.6071509104        2.8814450064        6.5899552897
 Cd        -6.7534042886        1.1873617704       -0.3192704653
 Cd        -4.0447415972        0.0755115005        3.0500149826
 Cd        -1.7741924186       -0.3131192449        6.8333605438
 Cd        -6.3662948828       -1.4635894883       -3.4401718931
 Cd        -4.3618719169       -3.1214789460       -0.1743963351
 Cd        -2.2425303897       -3.6221899996        3.6335392035
 Cd         0.1781474547       -3.9618454923        7.0369569498
 Cd        -4.2698162057       -5.9874982259       -2.9988858690
 Cd        -2.2494569859       -6.7962493370        0.6788762395
 Cd         0.0674996109       -7.3035382982        3.8544837358
 Cd        -4.0796912917        7.4118032936        2.4190935529
 Cd        -1.6113538307        6.4885296043        6.2504432941
 Cd        -4.3325058496        4.8130290513       -0.6768743248
 Cd        -1.8303963833        3.6698910524        3.1586552807
 Cd         0.4898327751        3.1634822673        6.7201563160
 Cd        -4.5988545520        2.0002204255       -4.0895633980
 Cd        -2.1631409072        1.0185246003       -0.4517019968
 Cd         0.1383556998       -0.0678379642        3.1343199087
 Cd         2.6424140569       -0.6634136653        6.8954965031
 Cd        -4.1541669299       -0.5350192091       -6.9611069227
 Cd        -2.2032960128       -1.8487844814       -3.4903749206
 Cd         0.0357389572       -2.8475526385       -0.0251359420
 Cd         2.4398843962       -3.8222395048        3.5302610021
 Cd         4.5938468847       -4.2153312688        6.5947501767
 Cd        -2.6321298389       -4.5696258381       -6.0784214469
 Cd        -0.3607816355       -6.1205367254       -3.0632439365
 Cd         1.9866838349       -6.8521998001       -0.0372938616
 Cd         4.3579939624       -7.5039638438        3.0970354643
 Cd        -2.4314827280        8.2870881961       -1.2006849503
 Cd         0.1211364178        6.7914308532        2.0739440776
 Cd         2.2583184113        6.3881690176        5.9816124165
 Cd        -2.2736344429        5.5409474152       -4.1123654219
 Cd         0.1544199294        4.6149272735       -0.9819687927
 Cd         2.6162845415        3.7539008882        2.4618287116
 Cd         4.3940720410        2.5016079787        5.6451618243
 Cd        -2.3859055180        3.0934255181       -7.5401684138
 Cd        -0.1312094638        1.7710068275       -4.3472705936
 Cd         2.1530189738        0.8603426469       -0.9631866267
 Cd         4.3038920424       -0.4401335176        2.5254933880
 Cd         6.4920110658       -0.6514752636        6.0110826266
 Cd         0.4035584086       -0.5929160997       -7.0624517247
 Cd         2.1511038111       -1.8414470895       -3.9632998776
 Cd         4.1301066853       -2.9778289984       -0.5482801232
 Cd         6.9197840936       -3.7966634387        2.8862900039
 Cd         1.0697246185       -4.7685083010       -6.7910719253
 Cd         3.6507686239       -5.7624206671       -3.6174006761
 Cd         5.7324366891       -6.5634980382       -0.3325516483
 Cd         2.4543540440        8.1227192048       -1.1568031228
 Cd         4.4056820457        7.2900576029        1.7946971511
 Cd         2.3803966623        5.2451456569       -4.8082277839
 Cd         4.8185296343        4.7187417671       -1.4277981356
 Cd         6.7583493294        3.8404231225        2.0310712215
 Cd         2.6209678616        2.7832253166       -7.7034587061
 Cd         4.8483411794        1.7851346140       -4.5236305029
 Cd         6.7274515359        1.0642984452       -0.9631140071
 Cd         8.8868208220        0.4155118947        2.4351375035
 Cd         4.3615812472       -0.9236831725       -7.7311511066
 Cd         6.7425645366       -1.9757312757       -4.2010721758
 Cd         8.5293375268       -2.6208175995       -0.2525755217
 Se        -9.0561320442        0.2442622111        0.9176551778
 Se        -6.3731126060       -0.6562340306        4.4186940983
 Se        -3.9339296160       -1.3485623608        8.2987076939
 Se        -6.5831802709       -3.7429130893        1.3875775342
 Se        -4.5790763712       -4.2757767333        4.8605757333
 Se        -4.6125811249       -7.7783699659        1.5324023672
 Se        -6.6436846884        3.9856262059        0.4561077542
 Se        -4.0723163184        2.6207533928        3.9151157610
 Se        -1.6325853154        2.0126625223        7.9271512207
 Se        -6.7141271169        0.9842229233       -3.1648896992
 Se        -4.4075677234       -0.2114944415        0.3946582991
 Se        -2.0526397466       -1.1148469425        4.2599113517
 Se         0.4058681584       -1.5660894372        8.0663660875
 Se        -4.4165067788       -3.1310280244       -2.8054791287
 Se        -2.2367543354       -4.0917126468        0.9473487169
 Se         0.1526062019       -4.8125115318        4.4863478090
 Se        -2.4164156192       -7.4224732266       -2.0536527973
 Se        -0.0659016040       -7.8810690432        1.3097701286
 Se        -4.5542143475        7.5952690401       -0.0140346647
 Se        -1.8482954522        6.3637687394        3.5415083451
 Se         0.4039839526        5.8258935646        7.5885094465
 Se        -4.4677855160        4.5545220498       -3.3490887639
 Se        -2.0808691634        3.7150429225        0.3431621878
 Se         0.4987527686        2.6963831663        3.7295834527
 Se         2.7719553122        1.9960855769        7.6275743577
 Se        -4.6150407980        2.0749820277       -6.9052264410
 Se        -2.2792793462        0.8533854186       -3.1263208431
 Se         0.0150633826       -0.1633826638        0.3856560954
 Se         2.3130929830       -1.3178157171        4.0001781898
 Se         4.8637399084       -1.8841681072        7.7369285522
 Se        -2.0693500293       -1.9666585343       -6.4607178631
 Se        -0.0439800742       -3.1606787140       -2.8087359190
 Se         2.2320226423       -4.2318285669        0.7811198241
 Se         4.8364708159       -4.9540487580        4.0968639020
 Se        -0.7552073380       -6.2870429757       -5.8414965034
 Se         1.9251119978       -7.4804271041       -2.6083979940
 Se         4.2591027959       -8.3813525069        0.7354850373
 Se         0.0351307701        7.3692326989       -0.4918807153
 Se         2.3817782291        6.5251935257        3.1442393575
 Se         0.0442648483        4.4290259125       -3.5947063828
 Se         2.5165554400        3.6273415212       -0.0587258220
 Se         4.7737229863        2.4653984159        3.1250015825
 Se         0.0453920864        1.9313534877       -6.9718870595
 Se         2.2764890818        0.7655210139       -3.6572118694
 Se         4.3772860934       -0.2853038218       -0.0190154238
 Se         6.9680115541       -1.1297331161        3.5574230417
 Se         2.2382201881       -2.2695960852       -6.6842855264
 Se         4.3745253138       -3.1975995436       -3.2161549352
 Se         6.4333918166       -4.1120536386        0.4116557338
 Se         4.8539797969        7.5525820215       -0.7467499853
 Se         4.8780037539        4.5493725179       -4.0137579984
 Se         7.0870285324        3.5947380421       -0.6427868746
 Se         4.7840053578        1.5276616582       -7.5556378283
 Se         6.9205037339        0.6110162323       -3.7073142095
 Se         9.1081254472       -0.0623222320       -0.0933896839
  C         6.9966613835       -6.9497473151       -2.8612738480
  H         7.7649322095       -7.1224747738       -3.6684216540
  O         5.8473959340       -6.4683060315       -3.1395307367
  O         7.2953327201       -7.2771703765       -1.6995633457
  C         3.3951070746       -6.2672554483       -6.9491308266
  H         4.3444066225       -6.8936096686       -7.0753272229
  O         3.0190160736       -5.7918487501       -5.7867705444
  O         2.6195877845       -6.1705501652       -7.9253323768
  C         6.3106261510       -2.9078817627       -7.4909514324
  H         7.1299137504       -3.7048862282       -7.4466889051
  O         6.0075909963       -2.3194431009       -6.3514695688
  O         5.9412017100       -2.4760851293       -8.6134724591
  C         8.9773738852       -3.3708994728       -3.4296123415
  H         9.9250180562       -3.8774829974       -3.1826003730
  O         8.5707705028       -3.4168795274       -4.6051240763
  O         8.2729070191       -2.6977910588       -2.5232751579
  C         9.7980042473       -4.6251732769        2.1809701657
  H        10.6408655401       -5.3318691344        2.3887999993
  O         9.7489611238       -4.1828917262        0.9945947868
  O         9.0340939241       -4.5701156493        3.1878309399
  C        -2.8217030586       -8.8883645768        5.3598602155
  H        -2.4154187803       -9.9024293192        5.4343946394
  O        -1.9862302272       -7.9311728587        5.0433509843
  O        -4.0902226854       -8.7290531888        5.4057384460
  C         2.9969024337       -8.6915449462        5.2874386481
  H         2.6967725338       -9.0398269484        6.2934215078
  O         2.0029951382       -8.3598619068        4.5608521310
  O         4.2224887280       -8.6071584178        4.9264603459
  C         2.8792651941       -5.7053320657        8.2323678329
  H         2.3955873073       -6.3773024893        8.9303283437
  O         2.2229488985       -4.8108292384        7.6177681628
  O         4.1490617820       -5.9062655717        8.1561057034
  C        -2.5346951510       -5.9173567017        8.5219173852
  H        -2.0052498086       -6.7390725628        9.0096019785
  O        -1.9201166464       -5.2610057786        7.5988878414
  O        -3.6521654138       -5.5110473145        8.8949304560
  C        -6.8630527242        2.3027179782        7.3891049484
  H        -7.2086193538        3.3071349018        7.3885257928
  O        -5.6243971196        2.1597196505        7.5354718159
  O        -7.6711490012        1.3717616610        7.2000126083
  C        -4.1170206226        6.2827584938        7.2281210276
  H        -5.2418933127        6.2896177269        7.3832000201
  O        -3.5294534412        5.2303716415        6.7748410414
  O        -3.5925212615        7.4680147851        7.3187720927
  C        -6.2567083522        7.1461808087        4.0781187465
  H        -7.2111390447        7.1649409639        4.6689854642
  O        -5.8093941984        6.0509625542        3.6298487415
  O        -5.6169339223        8.2228878173        3.8526941510
  C        -9.2741419264        2.9617127776        4.4605011356
  H        -9.7855372140        3.8838940690        4.7760086716
  O        -8.0603100179        3.0116824738        4.1204449282
  O       -10.0843159205        1.9825854687        4.3942707123
  C        -9.6032261775       -3.5281899439        4.2551351899
  H       -10.5971720209       -3.6001750875        4.7566807035
  O        -9.3838202912       -2.7226119490        3.2941463522
  O        -8.6854675442       -4.3055842475        4.7661016379
  C        -5.4081393326       -6.0791820764       -6.1561391749
  H        -6.0546960796       -6.5859836395       -6.8890942905
  O        -5.3133349329       -6.5051563655       -4.9696532093
  O        -4.8025138893       -5.0937066891       -6.6863917697
  C        -7.4874602449       -7.2704900297       -1.8348082339
  H        -7.8388434959       -7.7173330376       -2.7530342297
  O        -6.3902652762       -6.5557628295       -1.8864957416
  O        -8.0738141659       -7.4424387731       -0.7474021660
  C        -9.2562021740       -3.4270268200       -2.1219514714
  H        -9.5270787848       -4.0663584857       -2.9594189931
  O        -8.1707863678       -2.7562299850       -2.2723302595
  O        -9.8256693406       -3.4954056098       -1.0107018572
  C        -6.7206793895       -1.5101938515       -7.0045460213
  H        -7.7450574417       -1.9674181007       -7.1698505571
  O        -6.3204391098       -1.2782008359       -5.8019281328
  O        -6.0672186622       -1.2650336333       -8.0176726833
  C        -1.9628526644        5.6954775445       -7.4852654863
  H        -1.7770888886        6.7764005651       -7.4923242406
  O        -2.4614941417        5.1886893242       -6.4110792217
  O        -1.7548751798        5.0451046760       -8.5307002169
  C        -1.7168392132        9.0074492159       -3.7839198277
  H        -1.3493405476        9.2660238074       -4.8465614694
  O        -1.7686973084        7.7233063281       -3.5249785236
  O        -1.9632545155        9.8911693910       -2.9425889497
  C         2.5061931952        8.6538357277       -4.1272916459
  H         2.7131102182        9.0638249498       -5.0476060874
  O         2.0940319049        7.4562557696       -4.0297085390
  O         2.6629332812        9.4126267170       -3.1575151039
  C         1.7410952871        5.3672358630       -8.1968174126
  H         1.4358383610        6.4416008070       -8.3632925476
  O         2.2774161962        5.0783485289       -7.0470083016
  O         1.5301453842        4.4851078689       -9.0188895354
  C         9.4767936428        2.6096172534        3.9000240084
  H         9.6131090334        3.4671477718        4.5843902861
  O         8.5306641042        2.7177433310        3.0515757486
  O        10.1904615358        1.5418383512        4.0354945052
  C         6.6326272697        7.0382375359        3.3282316874
  H         7.5082674956        7.1289998248        4.0070788575
  O         6.4955721101        6.1625925342        2.4476301118
  O         5.7975164497        7.9038471049        3.5839241821
  C         4.7447862728        5.8524531083        6.9353327493
  H         5.7085862008        5.7040540943        7.4370666698
  O         4.3297060833        4.9889756820        6.0817240357
  O         4.1504033254        6.9237304161        7.1399982635
  C         7.5603220031        1.7452842183        7.1878081818
  H         8.1158840311        2.6116602203        7.6593692779
  O         6.7476212049        2.0302952799        6.2248790457
  O         7.8448013430        0.5833491701        7.5909743185
     227
 i =        2, time =        2.000, E =        11.1232097545
 Cd        -8.6166231766        0.4775165087        3.4782444309
 Cd        -5.8740837147       -0.2567451763        7.1123198894
 Cd        -8.4091799260       -2.1571041753        0.3823250966
 Cd        -6.8885411848       -3.2922420855        3.9624332349