     227
 i =        0, time =        0.000, E =       -14.6701451205
 Cd        -8.6216924880        0.4810107428        3.4775887729
 Cd        -5.8723589632       -0.2566559957        7.1151373767
 Cd        -8.4076147924       -2.1531404527        0.3867588804
 Cd        -6.8957642261       -3.2896665849        3.9600318291
 Cd        -3.6930098048       -3.6992689615        7.3819491709
 Cd        -6.4429261463       -6.2347087238        0.4622469067
 Cd        -4.3123952394       -6.8285875372        3.9039095072
 Cd        -6.1141073353        3.8626235599        2.9066844924
 Cd        -3.6048790416        2.8797284733        6.5917986711
 Cd        -6.7531255596        1.1841266196       -0.3182182747
 Cd        -4.0437606329        0.0729837467        3.0511954168
 Cd        -1.7753257667       -0.3121054857        6.8316599018
 Cd        -6.3661028473       -1.4630135273       -3.4383357626
 Cd        -4.3602814436       -3.1214810613       -0.1759283953
 Cd        -2.2424276819       -3.6242998489        3.6335413818
 Cd         0.1757294635       -3.9625201566        7.0364714760
 Cd        -4.2692200317       -5.9860442556       -3.0005266361
 Cd        -2.2482225396       -6.7972628816        0.6786391664
 Cd         0.0669003827       -7.3030327295        3.8545421700
 Cd        -4.0792754193        7.4105475565        2.4175118797
 Cd        -1.6116442377        6.4880648240        6.2478272306
 Cd        -4.3308002626        4.8127262164       -0.6762739309
 Cd        -1.8326132452        3.6694977750        3.1598212265
 Cd         0.4939817277        3.1637060931        6.7202662426
 Cd        -4.5980154021        1.9988297698       -4.0880170010
 Cd        -2.1651194586        1.0165564496       -0.4536921834
 Cd         0.1376109507       -0.0659106884        3.1336818174
 Cd         2.6419074521       -0.6636939286        6.8958319365
 Cd        -4.1515129292       -0.5348426091       -6.9620217917
 Cd        -2.2012490343       -1.8491984656       -3.4894107829
 Cd         0.0359311218       -2.8494155653       -0.0264680683
 Cd         2.4407298775       -3.8224684908        3.5289587884
 Cd         4.5907434619       -4.2169180472        6.5928471603
 Cd        -2.6321953796       -4.5685798778       -6.0773989300
 Cd        -0.3638438279       -6.1221236347       -3.0620735359
 Cd         1.9882729153       -6.8506852632       -0.0376753302
 Cd         4.3604701588       -7.5063202656        3.0981086138
 Cd        -2.4313710890        8.2839908015       -1.2010761441
 Cd         0.1210964618        6.7915494583        2.0748938605
 Cd         2.2602783261        6.3879934074        5.9824457591
 Cd        -2.2743307721        5.5403016700       -4.1096429978
 Cd         0.1552258413        4.6164378819       -0.9814446932
 Cd         2.6173372932        3.7540356816        2.4616712460
 Cd         4.3934694910        2.5024270436        5.6448470259
 Cd        -2.3839877703        3.0961459608       -7.5397423510
 Cd        -0.1308699873        1.7716472388       -4.3458913396
 Cd         2.1522040622        0.8595996928       -0.9600505658
 Cd         4.3027041934       -0.4425155449        2.5248589789
 Cd         6.4943132815       -0.6514444341        6.0110723312
 Cd         0.4032906214       -0.5920449882       -7.0625722312
 Cd         2.1504065746       -1.8410095193       -3.9631978812
 Cd         4.1282053355       -2.9764966895       -0.5499119195
 Cd         6.9189885741       -3.8001688729        2.8840486736
 Cd         1.0693858855       -4.7693596381       -6.7909688629
 Cd         3.6529341800       -5.7620820022       -3.6150795142
 Cd         5.7341856059       -6.5625995016       -0.3323817960
 Cd         2.4532379782        8.1225833618       -1.1556872380
 Cd         4.4025673150        7.2904811152        1.7928276254
 Cd         2.3800547108        5.2453457502       -4.8107637235
 Cd         4.8184663347        4.7191125514       -1.4277792117
 Cd         6.7589411702        3.8390778732        2.0295448973
 Cd         2.6210634084        2.7844913241       -7.7035228004
 Cd         4.8495943395        1.7843685348       -4.5225056138
 Cd         6.7261500983        1.0662237140       -0.9642295531
 Cd         8.8881450478        0.4141445330        2.4369093904
 Cd         4.3615782352       -0.9213178924       -7.7328888960
 Cd         6.7438649008       -1.9767569930       -4.2031112584
 Cd         8.5272445020       -2.6218905711       -0.2551455218
 Se        -9.0557725106        0.2424574140        0.9180313808
 Se        -6.3745872764       -0.6570220647        4.4225742627
 Se        -3.9358548519       -1.3506397678        8.2925868769
 Se        -6.5830028390       -3.7408669090        1.3890860046
 Se        -4.5802302415       -4.2716541219        4.8585926421
 Se        -4.6110671623       -7.7792240778        1.5343213278
 Se        -6.6407812351        3.9866809498        0.4586064126
 Se        -4.0705866514        2.6241591830        3.9150270775
 Se        -1.6315747320        2.0143859544        7.9219454430
 Se        -6.7106235468        0.9827493806       -3.1628202938
 Se        -4.4077684895       -0.2106461950        0.3970531668
 Se        -2.0534879979       -1.1190641497        4.2604482105
 Se         0.4069246601       -1.5676855049        8.0617057342
 Se        -4.4126107232       -3.1307459794       -2.8028288282
 Se        -2.2371864822       -4.0884616040        0.9473336128
 Se         0.1541797359       -4.8148952714        4.4843326207
 Se        -2.4147106009       -7.4199706225       -2.0529393442
 Se        -0.0662571417       -7.8800811154        1.3078284855
 Se        -4.5519687636        7.5920037884       -0.0122560791
 Se        -1.8482840651        6.3647212661        3.5390459072
 Se         0.4006735392        5.8241498358        7.5878867146
 Se        -4.4655945585        4.5529209660       -3.3484418515
 Se        -2.0798083538        3.7153034916        0.3451575142
 Se         0.4973892782        2.6967113851        3.7286137790
 Se         2.7724753484        1.9958260876        7.6298945277
 Se        -4.6126224962        2.0736182894       -6.9031574659
 Se        -2.2770211290        0.8531533747       -3.1284312065
 Se         0.0138865169       -0.1636477002        0.3858468104
 Se         2.3115473387       -1.3198431962        4.0017354986
 Se         4.8624545925       -1.8855864388        7.7371297607
 Se        -2.0700877949       -1.9675257511       -6.4603372509
 Se        -0.0447057629       -3.1582708631       -2.8090856920
 Se         2.2343306950       -4.2299664240        0.7817840723
 Se         4.8342987615       -4.9516929708        4.0974643468
 Se        -0.7556003326       -6.2829108386       -5.8406699955
 Se         1.9243057511       -7.4784768035       -2.6074198353
 Se         4.2543989663       -8.3809591814        0.7363809319
 Se         0.0386925703        7.3677075300       -0.4939635450
 Se         2.3791568525        6.5289221229        3.1400383851
 Se         0.0465974103        4.4270318221       -3.5936563407
 Se         2.5167269427        3.6273521599       -0.0581806204
 Se         4.7705604635        2.4670139639        3.1233546104
 Se         0.0435933033        1.9323944164       -6.9695738842
 Se         2.2733127965        0.7623703678       -3.6584263160
 Se         4.3816175435       -0.2841549253       -0.0177063702
 Se         6.9670500347       -1.1290204494        3.5565582379
 Se         2.2410869402       -2.2702007814       -6.6798205275
 Se         4.3723294721       -3.1971869108       -3.2130677403
 Se         6.4331938555       -4.1098532443        0.4136420186
 Se         4.8503033307        7.5509093293       -0.7463548497
 Se         4.8776288797        4.5477652435       -4.0091414448
 Se         7.0830986217        3.5950723552       -0.6434567968
 Se         4.7810064642        1.5273410534       -7.5566303287
 Se         6.9188050062        0.6130038217       -3.7081238627
 Se         9.1066871843       -0.0609359671       -0.0919647969
  C         6.9955771113       -6.9586634775       -2.8583426301
  H         7.7780160969       -7.1271873265       -3.6573399650
  O         5.8389952916       -6.4652991204       -3.1445809228
  O         7.2920676004       -7.2683568805       -1.6893132711
  C         3.3939431960       -6.2668607509       -6.9513074648
  H         4.3245440932       -6.8689211647       -7.0591687882
  O         3.0202466073       -5.7860511295       -5.7843136273
  O         2.6220129789       -6.1746538788       -7.9242101403
  C         6.3116555909       -2.9071154185       -7.4921130606
  H         7.0978863851       -3.7212906458       -7.4285512081
  O         6.0096715894       -2.3219711192       -6.3505932827
  O         5.9403243477       -2.4750431756       -8.6116316973
  C         8.9837561036       -3.3697375837       -3.4349055328
  H         9.9249943929       -3.8864043165       -3.1840078659
  O         8.5659407989       -3.4209184445       -4.6048832464
  O         8.2714489672       -2.6971151254       -2.5207012617
  C         9.7902109758       -4.6282247391        2.1768529346
  H        10.6284324694       -5.3337138149        2.3552924638
  O         9.7484501532       -4.1824896055        0.9942458601
  O         9.0219926648       -4.5705851174        3.1873629795
  C        -2.8252708508       -8.8894178348        5.3653894160
  H        -2.3915771747       -9.8892286280        5.4446685031
  O        -1.9808601030       -7.9304545651        5.0436955975
  O        -4.0908415257       -8.7280019527        5.4030844137
  C         3.0047406823       -8.6887063298        5.2919739424
  H         2.6853413808       -9.0312323512        6.2714246943
  O         1.9985977812       -8.3553887881        4.5599054594
  O         4.2197147413       -8.6069092298        4.9235206312
  C         2.8732291572       -5.7090624943        8.2322507888
  H         2.4095730423       -6.3582442170        8.9295273658
  O         2.2236878889       -4.8031284854        7.6183804854
  O         4.1525405945       -5.8988692439        8.1468427445
  C        -2.5324052264       -5.9090323801        8.5168983878
  H        -2.0058427467       -6.7599986745        9.0204193621
  O        -1.9189018681       -5.2527647032        7.5983339134
  O        -3.6521974131       -5.4981014961        8.8936623702
  C        -6.8661340661        2.3082426882        7.3884767521
  H        -7.2433530482        3.2983326111        7.3747512577
  O        -5.6189307919        2.1553364867        7.5292857639
  O        -7.6694328727        1.3672322100        7.2032576312
  C        -4.1128935570        6.2776012356        7.2258109093
  H        -5.2184092536        6.2949225170        7.4003980339
  O        -3.5215502414        5.2331222329        6.7794929280
  O        -3.5956064510        7.4679880815        7.3184340370
  C        -6.2584500423        7.1467273309        4.0778865765
  H        -7.2018864753        7.1620259062        4.6862261037
  O        -5.8042352338        6.0508881806        3.6277903665
  O        -5.6141473350        8.2227071687        3.8530055117
  C        -9.2670155991        2.9624473135        4.4549609073
  H        -9.7760873251        3.8307467380        4.7753730710
  O        -8.0580447847        3.0137717908        4.1153681461
  O       -10.0869615960        1.9755230626        4.3964141791
  C        -9.5997958208       -3.5202239981        4.2555074891
  H       -10.6284324694       -3.6062117458        4.7363993397
  O        -9.3836198173       -2.7271085544        3.2939504316
  O        -8.6749593009       -4.3055307223        4.7674147240
  C        -5.4063829718       -6.0836320759       -6.1576393485
  H        -6.0390997038       -6.5934387315       -6.8768176703
  O        -5.3157147411       -6.5042627408       -4.9638375967
  O        -4.7997118332       -5.0931497246       -6.6842330004
  C        -7.4812021438       -7.2683192216       -1.8337008205
  H        -7.8430239833       -7.7214409635       -2.7403108931
  O        -6.3847231004       -6.5596142310       -1.8855223803
  O        -8.0870004405       -7.4369608581       -0.7449951352
  C        -9.2637717352       -3.4248031045       -2.1287629167
  H        -9.5435102925       -4.0726156799       -2.9624854104
  O        -8.1685743898       -2.7562864935       -2.2769679175
  O        -9.8293124780       -3.4993302663       -1.0042472880
  C        -6.7198117275       -1.5155721631       -7.0057360974
  H        -7.7266400310       -1.9701098143       -7.1795729881
  O        -6.3208037730       -1.2812141421       -5.7891801227
  O        -6.0546670581       -1.2647410752       -8.0219575549
  C        -1.9610306020        5.6962737072       -7.4797868569
  H        -1.8068881661        6.7616764611       -7.4798700689
  O        -2.4613788677        5.1953402046       -6.4147373301
  O        -1.7592038190        5.0404242691       -8.5376948407
  C        -1.7153677193        9.0065729983       -3.7807068554
  H        -1.3518565997        9.2891789052       -4.8285272378
  O        -1.7735635219        7.7204009534       -3.5311974415
  O        -1.9589811591        9.8892286280       -2.9296575010
  C         2.5176986766        8.6527359013       -4.1276241396
  H         2.7356319561        9.0838176512       -5.0545617483
  O         2.0941304229        7.4607563111       -4.0382054964
  O         2.6632020791        9.4136986823       -3.1567247192
  C         1.7405814703        5.3615037054       -8.2026998584
  H         1.4592813282        6.4433815072       -8.3446733349
  O         2.2712544771        5.0744229803       -7.0359036782
  O         1.5374971892        4.4786315137       -9.0204193621
  C         9.4791869119        2.6134878200        3.9079418032
  H         9.6264681644        3.4611325178        4.5867541287
  O         8.5294682966        2.7206869475        3.0468687327
  O        10.1884170796        1.5361363159        4.0354546634
  C         6.6320899766        7.0427804887        3.3240585285
  H         7.5183451153        7.1103565644        4.0025867163
  O         6.4921259472        6.1579139584        2.4473334656
  O         5.8014508194        7.8970951585        3.5804466065
  C         4.7468288793        5.8510846562        6.9391041765
  H         5.6837062732        5.7110173508        7.4566454645
  O         4.3315486404        4.9881730889        6.0840680113
  O         4.1390624477        6.9214380767        7.1338855679
  C         7.5642974957        1.7429307679        7.1823006621
  H         8.1116275708        2.6102062210        7.6466333920
  O         6.7423080014        2.0330978891        6.2208765696
  O         7.8434776238        0.5800715711        7.5931108165
     227
 i =        1, time =        1.000, E =       -14.7060744425
 Cd        -8.6193109591        0.4795936005        3.4772989926
 Cd        -5.8718369693       -0.2570823284        7.1142825074
 Cd        -8.4082691893       -2.1543211259        0.3851028122
 Cd        -6.8926312337       -3.2916520933        3.9611139271
 Cd        -3.6901999090       -3.7005840182        7.3822709555
 Cd        -6.4420797600       -6.2357345893        0.4642796148
 Cd        -4.3123079365       -6.8295741395        3.9054611049
 Cd        -6.1165115639        3.8609236705        2.9058578409
 Cd        -3.6068292027        2.8813180831        6.5902730935
 Cd        -6.7534377498        1.1872921925       -0.3192475540
 Cd        -4.0445585113        0.0755187565        3.0501373782
 Cd        -1.7741824503       -0.3127696024        6.8335446614
 Cd        -6.3661883913       -1.4628412814       -3.4401874591
 Cd        -4.3615432451       -3.1216753307       -0.1744927443
 Cd        -2.2425895383       -3.6217884994        3.6335961472
 Cd         0.1785213477       -3.9616896289        7.0369620730
 Cd        -4.2695584622       -5.9879974101       -2.9988817591
 Cd        -2.2489706513       -6.7965174352        0.6790482168
 Cd         0.0676902007       -7.3032040437        3.8543274169
 Cd        -4.0801207196        7.4118821545        2.4185739339
 Cd        -1.6110179014        6.4881345843        6.2508065442
 Cd        -4.3325543098        4.8128932865       -0.6769390124
 Cd        -1.8304116882        3.6697093352        3.1588402315
 Cd         0.4898172822        3.1633780112        6.7204398686
 Cd        -4.5993867827        2.0001710552       -4.0892110707
 Cd        -2.1630007338        1.0182719380       -0.4517475571
 Cd         0.1384105233       -0.0680560445        3.1343981260
 Cd         2.6424274490       -0.6635082981        6.8958027174
 Cd        -4.1541566136       -0.5351082348       -6.9611270362
 Cd        -2.2032325524       -1.8489922018       -3.4901550498
 Cd         0.0357825667       -2.8475366033       -0.0251156419
 Cd         2.4397713866       -3.8218045311        3.5303967406
 Cd         4.5938259242       -4.2152618004        6.5947346820
 Cd        -2.6318670549       -4.5698698399       -6.0785175234
 Cd        -0.3608999154       -6.1209180548       -3.0631862164
 Cd         1.9864991093       -6.8523276529       -0.0374070789
 Cd         4.3579004359       -7.5046864027        3.0972908657
 Cd        -2.4318481148        8.2868605927       -1.2005118277
 Cd         0.1211427565        6.7912549287        2.0744953148
 Cd         2.2582199170        6.3880136499        5.9823136451
 Cd        -2.2738986263        5.5407005812       -4.1122315176
 Cd         0.1544416852        4.6149020908       -0.9822293793
 Cd         2.6164479150        3.7535422513        2.4613092553
 Cd         4.3940022060        2.5015811173        5.6448775003
 Cd        -2.3862812614        3.0936594219       -7.5399847477
 Cd        -0.1312439197        1.7709785807       -4.3473765123
 Cd         2.1531466709        0.8601418607       -0.9632082210
 Cd         4.3036389724       -0.4402020197        2.5250467264
 Cd         6.4920454380       -0.6516510141        6.0107207711
 Cd         0.4040104878       -0.5928318791       -7.0622454828
 Cd         2.1512640931       -1.8412339627       -3.9633357424
 Cd         4.1300522312       -2.9779602574       -0.5482581786
 Cd         6.9198234368       -3.7968699373        2.8857926222
 Cd         1.0696625075       -4.7689939647       -6.7908061101
 Cd         3.6507046965       -5.7625022718       -3.6176276305
 Cd         5.7328069539       -6.5638559321       -0.3327253162
 Cd         2.4548557427        8.1224558595       -1.1567320573
 Cd         4.4055103755        7.2898836588        1.7948030869
 Cd         2.3804071969        5.2452193428       -4.8085581722
 Cd         4.8188503361        4.7185672730       -1.4282127874
 Cd         6.7582970140        3.8402524419        2.0311249771
 Cd         2.6214992312        2.7830595361       -7.7034127114
 Cd         4.8490189264        1.7848435374       -4.5233068854
 Cd         6.7276585915        1.0647705747       -0.9631328170
 Cd         8.8867765055        0.4155791000        2.4349218013
 Cd         4.3617667837       -0.9230168765       -7.7309896774
 Cd         6.7427265047       -1.9756760289       -4.2012046277
 Cd         8.5292107210       -2.6208197467       -0.2527390887
 Se        -9.0551786307        0.2433296435        0.9180992859
 Se        -6.3728647645       -0.6564225443        4.4184329898
 Se        -3.9343291095       -1.3488366234        8.2972197678
 Se        -6.5831182679       -3.7426660018        1.3878875655
 Se        -4.5790387274       -4.2751784885        4.8600155785
 Se        -4.6123431822       -7.7771221598        1.5327063962
 Se        -6.6426930966        3.9855471139        0.4571528425
 Se        -4.0720355130        2.6208070985        3.9145625349
 Se        -1.6330653514        2.0120617931        7.9257247254
 Se        -6.7124734787        0.9833308948       -3.1652301737
 Se        -4.4072162664       -0.2112889407        0.3948327384
 Se        -2.0529435716       -1.1151628343        4.2595450915
 Se         0.4059521925       -1.5661601954        8.0654449021
 Se        -4.4161825282       -3.1303295170       -2.8049299487
 Se        -2.2371963705       -4.0916126914        0.9472557151
 Se         0.1528999192       -4.8126474179        4.4859738577
 Se        -2.4165140113       -7.4211720836       -2.0538508985
 Se        -0.0665848093       -7.8797319192        1.3096444049
 Se        -4.5527719134        7.5949653421       -0.0130860879
 Se        -1.8472592415        6.3634529104        3.5405523261
 Se         0.4037949761        5.8260630561        7.5867045252
 Se        -4.4665805787        4.5541338470       -3.3489780498
 Se        -2.0809152272        3.7151662185        0.3431547440
 Se         0.4983864918        2.6967902508        3.7289785826
 Se         2.7718320182        1.9959228093        7.6265820492
 Se        -4.6137505342        2.0747933588       -6.9049982699
 Se        -2.2789966160        0.8534436301       -3.1261780100
 Se         0.0147349259       -0.1632864132        0.3854887601
 Se         2.3130246290       -1.3185209944        3.9993899815
 Se         4.8633436700       -1.8842646081        7.7358422934
 Se        -2.0699096942       -1.9664906456       -6.4604685922
 Se        -0.0444724084       -3.1601588518       -2.8087591718
 Se         2.2322093162       -4.2315515105        0.7809889396
 Se         4.8363015559       -4.9533962349        4.0967687677
 Se        -0.7551738205       -6.2855069729       -5.8414173897
 Se         1.9250328829       -7.4794263821       -2.6078621112
 Se         4.2592769369       -8.3798591822        0.7361099864
 Se         0.0354807194        7.3687954090       -0.4914615061
 Se         2.3811888237        6.5251980030        3.1430613826
 Se         0.0439079960        4.4288581018       -3.5942259940
 Se         2.5164077404        3.6274117993       -0.0574965478
 Se         4.7730240385        2.4659068425        3.1252183746
 Se         0.0454738733        1.9303755858       -6.9709471485
 Se         2.2760165610        0.7650523203       -3.6570831623
 Se         4.3768365622       -0.2853561246       -0.0182067898
 Se         6.9677801485       -1.1295611239        3.5579597866
 Se         2.2373602448       -2.2686220062       -6.6839327939
 Se         4.3739469496       -3.1975087066       -3.2157878833
 Se         6.4331967662       -4.1118015618        0.4125426924
 Se         4.8523155227        7.5524482493       -0.7461504158
 Se         4.8775914892        4.5490805126       -4.0127309837
 Se         7.0860184598        3.5938796748       -0.6428101935
 Se         4.7824262204        1.5268332441       -7.5555622832
 Se         6.9191598539        0.6111397835       -3.7073168311
 Se         9.1072549121       -0.0625996657       -0.0926483345
  C         6.9966600614       -6.9497400916       -2.8612741827
  H         7.7649322095       -7.1224747738       -3.6684216540
  O         5.8450432646       -6.4675593191       -3.1398097793
  O         7.2907698644       -7.2751000207       -1.6955908869
  C         3.3951102907       -6.2672514940       -6.9491269172
  H         4.3444066225       -6.8936096686       -7.0753272229
  O         3.0188150473       -5.7911017539       -5.7835551139
  O         2.6182514973       -6.1693364279       -7.9243559937
  C         6.3106260113       -2.9078841863       -7.4909433186
  H         7.1299137504       -3.7048862282       -7.4466889051
  O         6.0081584818       -2.3185300235       -6.3487871411
  O         5.9398548546       -2.4747620252       -8.6127217664
  C         8.9773680877       -3.3709009337       -3.4296095008
  H         9.9250180562       -3.8774829974       -3.1826003730
  O         8.5689843761       -3.4154657714       -4.6047271110
  O         8.2720138838       -2.6970678782       -2.5211292015
  C         9.7979987663       -4.6251711261        2.1809679915
  H        10.6408655401       -5.3318691344        2.3887999993
  O         9.7476215875       -4.1811974033        0.9932536220
  O         9.0303118009       -4.5687278880        3.1872842846
  C        -2.8217008730       -8.8883588412        5.3598602532
  H        -2.4154187803       -9.9024293192        5.4343946394
  O        -1.9852367320       -7.9307229873        5.0425784484
  O        -4.0903628392       -8.7278212884        5.4047696490
  C         2.9969009203       -8.6915388965        5.2874395851
  H         2.6967725338       -9.0398269484        6.2934215078
  O         2.0005703260       -8.3584268674        4.5598492594
  O         4.2230465647       -8.6027764349        4.9191969275
  C         2.8792621419       -5.7053324624        8.2323631519
  H         2.3955873073       -6.3773024893        8.9303283437
  O         2.2203315446       -4.8094543118        7.6166890883
  O         4.1495663551       -5.9043165407        8.1542998409
  C        -2.5346937399       -5.9173573913        8.5219104096
  H        -2.0052498086       -6.7390725628        9.0096019785
  O        -1.9209755406       -5.2590717866        7.5984742226
  O        -3.6522067730       -5.5091827610        8.8933600683
  C        -6.8630515314        2.3027189156        7.3890969923
  H        -7.2086193538        3.3071349018        7.3885257928
  O        -5.6222759104        2.1592277264        7.5341923099
  O        -7.6699411643        1.3706731958        7.1999514080
  C        -4.1170225099        6.2827549133        7.2281155053
  H        -5.2418933127        6.2896177269        7.3832000201
  O        -3.5275105116        5.2294377132        6.7740936423
  O        -3.5914305150        7.4674745519        7.3181793943
  C        -6.2567056322        7.1461758933        4.0781207915
  H        -7.2111390447        7.1649409639        4.6689854642
  O        -5.8090520003        6.0488868590        3.6284832359
  O        -5.6140449222        8.2213563538        3.8499976068
  C        -9.2741357270        2.9617092867        4.4605030275
  H        -9.7855372140        3.8838940690        4.7760086716
  O        -8.0592298232        3.0117704642        4.1196113245
  O       -10.0820668360        1.9802938319        4.3928646909
  C        -9.6032219351       -3.5281875451        4.2551326685
  H       -10.5971720209       -3.6001750875        4.7566807035
  O        -9.3832849127       -2.7226885527        3.2942322430
  O        -8.6808544433       -4.3029489219        4.7640087975
  C        -5.4081394177       -6.0791779534       -6.1561347720
  H        -6.0546960796       -6.5859836395       -6.8890942905
  O        -5.3117045964       -6.5043417485       -4.9666237633
  O        -4.7996718602       -5.0930175293       -6.6855896643
  C        -7.4874575788       -7.2704834068       -1.8348093551
  H        -7.8388434959       -7.7173330376       -2.7530342297
  O        -6.3891681472       -6.5551481514       -1.8849552692
  O        -8.0722783040       -7.4413137982       -0.7462749303
  C        -9.2561961117       -3.4270291091       -2.1219495268
  H        -9.5270787848       -4.0663584857       -2.9594189931
  O        -8.1700530017       -2.7556164756       -2.2725068883
  O        -9.8245822672       -3.4943809687       -1.0096434941
  C        -6.7206769478       -1.5101977960       -7.0045416592
  H        -7.7450574417       -1.9674181007       -7.1698505571
  O        -6.3198664929       -1.2781742901       -5.7999414091
  O        -6.0645017215       -1.2639963742       -8.0161583339
  C        -1.9628481715        5.6954765142       -7.4852612554
  H        -1.7770888886        6.7764005651       -7.4923242406
  O        -2.4612147744        5.1872865079       -6.4094762690
  O        -1.7559108491        5.0418767100       -8.5290392714
  C        -1.7168347886        9.0074442935       -3.7839203070
  H        -1.3493405476        9.2660238074       -4.8465614694
  O        -1.7696646839        7.7207011864       -3.5246498589
  O        -1.9636052603        9.8899703335       -2.9413001329
  C         2.5061893336        8.6538314574       -4.1272917314
  H         2.7131102182        9.0638249498       -5.0476060874
  O         2.0943150003        7.4541653170       -4.0303435876
  O         2.6627582676        9.4115763064       -3.1558868984
  C         1.7410900676        5.3672352874       -8.1968133202
  H         1.4358383610        6.4416008070       -8.3632925476
  O         2.2778950410        5.0770545274       -7.0427903286
  O         1.5309634869        4.4838307581       -9.0178933167
  C         9.4767861433        2.6096163819        3.9000260641
  H         9.6131090334        3.4671477718        4.5843902861
  O         8.5288285623        2.7174177979        3.0499418454
  O        10.1890801702        1.5406483830        4.0337985460
  C         6.6326244901        7.0382318501        3.3282341031
  H         7.5082674956        7.1289998248        4.0070788575
  O         6.4947116361        6.1610721963        2.4469090446
  O         5.7960595246        7.9032126196        3.5820655602
  C         4.7447878789        5.8524505853        6.9353271934
  H         5.7085862008        5.7040540943        7.4370666698
  O         4.3288431883        4.9886413083        6.0815109044
  O         4.1471724881        6.9228119521        7.1380130425
  C         7.5603206718        1.7452844939        7.1878018411
  H         8.1158840311        2.6116602203        7.6593692779
  O         6.7463394610        2.0301630744        6.2245416912
  O         7.8438585469        0.5824895172        7.5898636109
     227
 i =        2, time =        2.000, E =       -14.7953006739
 Cd        -8.6168789981        0.4781259008        3.4772850204
 Cd        -5.8719625551       -0.2572040467        7.1131955771
 Cd        -8.4090774899       -2.1559096560        0.3831545796
 Cd        -6.8893081842       -3.2933187896        3.9622146162