     227
 i =        0, time =        0.000, E =       -12.9532647496
 Cd        -8.6216924880        0.4810107428        3.4775887729
 Cd        -5.8723589632       -0.2566559957        7.1151373767
 Cd        -8.4076147924       -2.1531404527        0.3867588804
 Cd        -6.8957642261       -3.2896665849        3.9600318291
 Cd        -3.6930098048       -3.6992689615        7.3819491709
 Cd        -6.4429261463       -6.2347087238        0.4622469067
 Cd        -4.3123952394       -6.8285875372        3.9039095072
 Cd        -6.1141073353        3.8626235599        2.9066844924
 Cd        -3.6048790416        2.8797284733        6.5917986711
 Cd        -6.7531255596        1.1841266196       -0.3182182747
 Cd        -4.0437606329        0.0729837467        3.0511954168
 Cd        -1.7753257667       -0.3121054857        6.8316599018
 Cd        -6.3661028473       -1.4630135273       -3.4383357626
 Cd        -4.3602814436       -3.1214810613       -0.1759283953
 Cd        -2.2424276819       -3.6242998489        3.6335413818
 Cd         0.1757294635       -3.9625201566        7.0364714760
 Cd        -4.2692200317       -5.9860442556       -3.0005266361
 Cd        -2.2482225396       -6.7972628816        0.6786391664
 Cd         0.0669003827       -7.3030327295        3.8545421700
 Cd        -4.0792754193        7.4105475565        2.4175118797
 Cd        -1.6116442377        6.4880648240        6.2478272306
 Cd        -4.3308002626        4.8127262164       -0.6762739309
 Cd        -1.8326132452        3.6694977750        3.1598212265
 Cd         0.4939817277        3.1637060931        6.7202662426
 Cd        -4.5980154021        1.9988297698       -4.0880170010
 Cd        -2.1651194586        1.0165564496       -0.4536921834
 Cd         0.1376109507       -0.0659106884        3.1336818174
 Cd         2.6419074521       -0.6636939286        6.8958319365
 Cd        -4.1515129292       -0.5348426091       -6.9620217917
 Cd        -2.2012490343       -1.8491984656       -3.4894107829
 Cd         0.0359311218       -2.8494155653       -0.0264680683
 Cd         2.4407298775       -3.8224684908        3.5289587884
 Cd         4.5907434619       -4.2169180472        6.5928471603
 Cd        -2.6321953796       -4.5685798778       -6.0773989300
 Cd        -0.3638438279       -6.1221236347       -3.0620735359
 Cd         1.9882729153       -6.8506852632       -0.0376753302
 Cd         4.3604701588       -7.5063202656        3.0981086138
 Cd        -2.4313710890        8.2839908015       -1.2010761441
 Cd         0.1210964618        6.7915494583        2.0748938605
 Cd         2.2602783261        6.3879934074        5.9824457591
 Cd        -2.2743307721        5.5403016700       -4.1096429978
 Cd         0.1552258413        4.6164378819       -0.9814446932
 Cd         2.6173372932        3.7540356816        2.4616712460
 Cd         4.3934694910        2.5024270436        5.6448470259
 Cd        -2.3839877703        3.0961459608       -7.5397423510
 Cd        -0.1308699873        1.7716472388       -4.3458913396
 Cd         2.1522040622        0.8595996928       -0.9600505658
 Cd         4.3027041934       -0.4425155449        2.5248589789
 Cd         6.4943132815       -0.6514444341        6.0110723312
 Cd         0.4032906214       -0.5920449882       -7.0625722312
 Cd         2.1504065746       -1.8410095193       -3.9631978812
 Cd         4.1282053355       -2.9764966895       -0.5499119195
 Cd         6.9189885741       -3.8001688729        2.8840486736
 Cd         1.0693858855       -4.7693596381       -6.7909688629
 Cd         3.6529341800       -5.7620820022       -3.6150795142
 Cd         5.7341856059       -6.5625995016       -0.3323817960
 Cd         2.4532379782        8.1225833618       -1.1556872380
 Cd         4.4025673150        7.2904811152        1.7928276254
 Cd         2.3800547108        5.2453457502       -4.8107637235
 Cd         4.8184663347        4.7191125514       -1.4277792117
 Cd         6.7589411702        3.8390778732        2.0295448973
 Cd         2.6210634084        2.7844913241       -7.7035228004
 Cd         4.8495943395        1.7843685348       -4.5225056138
 Cd         6.7261500983        1.0662237140       -0.9642295531
 Cd         8.8881450478        0.4141445330        2.4369093904
 Cd         4.3615782352       -0.9213178924       -7.7328888960
 Cd         6.7438649008       -1.9767569930       -4.2031112584
 Cd         8.5272445020       -2.6218905711       -0.2551455218
 Se        -9.0557725106        0.2424574140        0.9180313808
 Se        -6.3745872764       -0.6570220647        4.4225742627
 Se        -3.9358548519       -1.3506397678        8.2925868769
 Se        -6.5830028390       -3.7408669090        1.3890860046
 Se        -4.5802302415       -4.2716541219        4.8585926421
 Se        -4.6110671623       -7.7792240778        1.5343213278
 Se        -6.6407812351        3.9866809498        0.4586064126
 Se        -4.0705866514        2.6241591830        3.9150270775
 Se        -1.6315747320        2.0143859544        7.9219454430
 Se        -6.7106235468        0.9827493806       -3.1628202938
 Se        -4.4077684895       -0.2106461950        0.3970531668
 Se        -2.0534879979       -1.1190641497        4.2604482105
 Se         0.4069246601       -1.5676855049        8.0617057342
 Se        -4.4126107232       -3.1307459794       -2.8028288282
 Se        -2.2371864822       -4.0884616040        0.9473336128
 Se         0.1541797359       -4.8148952714        4.4843326207
 Se        -2.4147106009       -7.4199706225       -2.0529393442
 Se        -0.0662571417       -7.8800811154        1.3078284855
 Se        -4.5519687636        7.5920037884       -0.0122560791
 Se        -1.8482840651        6.3647212661        3.5390459072
 Se         0.4006735392        5.8241498358        7.5878867146
 Se        -4.4655945585        4.5529209660       -3.3484418515
 Se        -2.0798083538        3.7153034916        0.3451575142
 Se         0.4973892782        2.6967113851        3.7286137790
 Se         2.7724753484        1.9958260876        7.6298945277
 Se        -4.6126224962        2.0736182894       -6.9031574659
 Se        -2.2770211290        0.8531533747       -3.1284312065
 Se         0.0138865169       -0.1636477002        0.3858468104
 Se         2.3115473387       -1.3198431962        4.0017354986
 Se         4.8624545925       -1.8855864388        7.7371297607
 Se        -2.0700877949       -1.9675257511       -6.4603372509
 Se        -0.0447057629       -3.1582708631       -2.8090856920
 Se         2.2343306950       -4.2299664240        0.7817840723
 Se         4.8342987615       -4.9516929708        4.0974643468
 Se        -0.7556003326       -6.2829108386       -5.8406699955
 Se         1.9243057511       -7.4784768035       -2.6074198353
 Se         4.2543989663       -8.3809591814        0.7363809319
 Se         0.0386925703        7.3677075300       -0.4939635450
 Se         2.3791568525        6.5289221229        3.1400383851
 Se         0.0465974103        4.4270318221       -3.5936563407
 Se         2.5167269427        3.6273521599       -0.0581806204
 Se         4.7705604635        2.4670139639        3.1233546104
 Se         0.0435933033        1.9323944164       -6.9695738842
 Se         2.2733127965        0.7623703678       -3.6584263160
 Se         4.3816175435       -0.2841549253       -0.0177063702
 Se         6.9670500347       -1.1290204494        3.5565582379
 Se         2.2410869402       -2.2702007814       -6.6798205275
 Se         4.3723294721       -3.1971869108       -3.2130677403
 Se         6.4331938555       -4.1098532443        0.4136420186
 Se         4.8503033307        7.5509093293       -0.7463548497
 Se         4.8776288797        4.5477652435       -4.0091414448
 Se         7.0830986217        3.5950723552       -0.6434567968
 Se         4.7810064642        1.5273410534       -7.5566303287
 Se         6.9188050062        0.6130038217       -3.7081238627
 Se         9.1066871843       -0.0609359671       -0.0919647969
  C         6.9955771113       -6.9586634775       -2.8583426301
  H         7.7780160969       -7.1271873265       -3.6573399650
  O         5.8389952916       -6.4652991204       -3.1445809228
  O         7.2920676004       -7.2683568805       -1.6893132711
  C         3.3939431960       -6.2668607509       -6.9513074648
  H         4.3245440932       -6.8689211647       -7.0591687882
  O         3.0202466073       -5.7860511295       -5.7843136273
  O         2.6220129789       -6.1746538788       -7.9242101403
  C         6.3116555909       -2.9071154185       -7.4921130606
  H         7.0978863851       -3.7212906458       -7.4285512081
  O         6.0096715894       -2.3219711192       -6.3505932827
  O         5.9403243477       -2.4750431756       -8.6116316973
  C         8.9837561036       -3.3697375837       -3.4349055328
  H         9.9249943929       -3.8864043165       -3.1840078659
  O         8.5659407989       -3.4209184445       -4.6048832464
  O         8.2714489672       -2.6971151254       -2.5207012617
  C         9.7902109758       -4.6282247391        2.1768529346
  H        10.6284324694       -5.3337138149        2.3552924638
  O         9.7484501532       -4.1824896055        0.9942458601
  O         9.0219926648       -4.5705851174        3.1873629795
  C        -2.8252708508       -8.8894178348        5.3653894160
  H        -2.3915771747       -9.8892286280        5.4446685031
  O        -1.9808601030       -7.9304545651        5.0436955975
  O        -4.0908415257       -8.7280019527        5.4030844137
  C         3.0047406823       -8.6887063298        5.2919739424
  H         2.6853413808       -9.0312323512        6.2714246943
  O         1.9985977812       -8.3553887881        4.5599054594
  O         4.2197147413       -8.6069092298        4.9235206312
  C         2.8732291572       -5.7090624943        8.2322507888
  H         2.4095730423       -6.3582442170        8.9295273658
  O         2.2236878889       -4.8031284854        7.6183804854
  O         4.1525405945       -5.8988692439        8.1468427445
  C        -2.5324052264       -5.9090323801        8.5168983878
  H        -2.0058427467       -6.7599986745        9.0204193621
  O        -1.9189018681       -5.2527647032        7.5983339134
  O        -3.6521974131       -5.4981014961        8.8936623702
  C        -6.8661340661        2.3082426882        7.3884767521
  H        -7.2433530482        3.2983326111        7.3747512577
  O        -5.6189307919        2.1553364867        7.5292857639
  O        -7.6694328727        1.3672322100        7.2032576312
  C        -4.1128935570        6.2776012356        7.2258109093
  H        -5.2184092536        6.2949225170        7.4003980339
  O        -3.5215502414        5.2331222329        6.7794929280
  O        -3.5956064510        7.4679880815        7.3184340370
  C        -6.2584500423        7.1467273309        4.0778865765
  H        -7.2018864753        7.1620259062        4.6862261037
  O        -5.8042352338        6.0508881806        3.6277903665
  O        -5.6141473350        8.2227071687        3.8530055117
  C        -9.2670155991        2.9624473135        4.4549609073
  H        -9.7760873251        3.8307467380        4.7753730710
  O        -8.0580447847        3.0137717908        4.1153681461
  O       -10.0869615960        1.9755230626        4.3964141791
  C        -9.5997958208       -3.5202239981        4.2555074891
  H       -10.6284324694       -3.6062117458        4.7363993397
  O        -9.3836198173       -2.7271085544        3.2939504316
  O        -8.6749593009       -4.3055307223        4.7674147240
  C        -5.4063829718       -6.0836320759       -6.1576393485
  H        -6.0390997038       -6.5934387315       -6.8768176703
  O        -5.3157147411       -6.5042627408       -4.9638375967
  O        -4.7997118332       -5.0931497246       -6.6842330004
  C        -7.4812021438       -7.2683192216       -1.8337008205
  H        -7.8430239833       -7.7214409635       -2.7403108931
  O        -6.3847231004       -6.5596142310       -1.8855223803
  O        -8.0870004405       -7.4369608581       -0.7449951352
  C        -9.2637717352       -3.4248031045       -2.1287629167
  H        -9.5435102925       -4.0726156799       -2.9624854104
  O        -8.1685743898       -2.7562864935       -2.2769679175
  O        -9.8293124780       -3.4993302663       -1.0042472880
  C        -6.7198117275       -1.5155721631       -7.0057360974
  H        -7.7266400310       -1.9701098143       -7.1795729881
  O        -6.3208037730       -1.2812141421       -5.7891801227
  O        -6.0546670581       -1.2647410752       -8.0219575549
  C        -1.9610306020        5.6962737072       -7.4797868569
  H        -1.8068881661        6.7616764611       -7.4798700689
  O        -2.4613788677        5.1953402046       -6.4147373301
  O        -1.7592038190        5.0404242691       -8.5376948407
  C        -1.7153677193        9.0065729983       -3.7807068554
  H        -1.3518565997        9.2891789052       -4.8285272378
  O        -1.7735635219        7.7204009534       -3.5311974415
  O        -1.9589811591        9.8892286280       -2.9296575010
  C         2.5176986766        8.6527359013       -4.1276241396
  H         2.7356319561        9.0838176512       -5.0545617483
  O         2.0941304229        7.4607563111       -4.0382054964
  O         2.6632020791        9.4136986823       -3.1567247192
  C         1.7405814703        5.3615037054       -8.2026998584
  H         1.4592813282        6.4433815072       -8.3446733349
  O         2.2712544771        5.0744229803       -7.0359036782
  O         1.5374971892        4.4786315137       -9.0204193621
  C         9.4791869119        2.6134878200        3.9079418032
  H         9.6264681644        3.4611325178        4.5867541287
  O         8.5294682966        2.7206869475        3.0468687327
  O        10.1884170796        1.5361363159        4.0354546634
  C         6.6320899766        7.0427804887        3.3240585285
  H         7.5183451153        7.1103565644        4.0025867163
  O         6.4921259472        6.1579139584        2.4473334656
  O         5.8014508194        7.8970951585        3.5804466065
  C         4.7468288793        5.8510846562        6.9391041765
  H         5.6837062732        5.7110173508        7.4566454645
  O         4.3315486404        4.9881730889        6.0840680113
  O         4.1390624477        6.9214380767        7.1338855679
  C         7.5642974957        1.7429307679        7.1823006621
  H         8.1116275708        2.6102062210        7.6466333920
  O         6.7423080014        2.0330978891        6.2208765696
  O         7.8434776238        0.5800715711        7.5931108165
     227
 i =        1, time =        1.000, E =       -12.9669925315
 Cd        -8.6193302874        0.4796240141        3.4772202916
 Cd        -5.8716530466       -0.2571495325        7.1143515302
 Cd        -8.4082382947       -2.1542086356        0.3851821428
 Cd        -6.8926932570       -3.2917470915        3.9611030313
 Cd        -3.6901858367       -3.7004667047        7.3823360791
 Cd        -6.4420154374       -6.2357472813        0.4642759973
 Cd        -4.3123342750       -6.8296013498        3.9053132038
 Cd        -6.1164312409        3.8609273511        2.9056789617
 Cd        -3.6067021160        2.8812636258        6.5903517180
 Cd        -6.7534299393        1.1872565707       -0.3192318402
 Cd        -4.0444708252        0.0755183370        3.0501643631
 Cd        -1.7741862253       -0.3126509988        6.8335623190
 Cd        -6.3661290106       -1.4625951018       -3.4401785494
 Cd        -4.3614251072       -3.1217417572       -0.1745303392
 Cd        -2.2426020463       -3.6216550841        3.6336025338
 Cd         0.1786326130       -3.9616294668        7.0369447471
 Cd        -4.2694442073       -5.9881351909       -2.9988712834
 Cd        -2.2488103922       -6.7965796625        0.6791218587
 Cd         0.0677495523       -7.3030743101        3.8542683792
 Cd        -4.0802236151        7.4119128109        2.4183891317
 Cd        -1.6108761434        6.4880098485        6.2509002622
 Cd        -4.3325372550        4.8128408655       -0.6769449351
 Cd        -1.8304004708        3.6696395741        3.1589017876
 Cd         0.4898096588        3.1633577224        6.7204926075
 Cd        -4.5995303494        2.0001320425       -4.0890888162
 Cd        -2.1629335236        1.0181823634       -0.4517506730
 Cd         0.1384216081       -0.0681243856        3.1344052756
 Cd         2.6424376184       -0.6635404192        6.8958597627
 Cd        -4.1541089832       -0.5351347303       -6.9611280766
 Cd        -2.2031988933       -1.8490576140       -3.4900776235
 Cd         0.0357974584       -2.8475029818       -0.0251051026
 Cd         2.4397353996       -3.8216528999        3.5304378233
 Cd         4.5938324275       -4.2152224132        6.5947005669
 Cd        -2.6317611064       -4.5699338567       -6.0785331457
 Cd        -0.3609408508       -6.1210016985       -3.0631526932
 Cd         1.9864433483       -6.8523362140       -0.0374393111
 Cd         4.3578818972       -7.5049022988        3.0973579509
 Cd        -2.4319708698        8.2867807233       -1.2004180274
 Cd         0.1211444041        6.7911861057        2.0746711451
 Cd         2.2581472144        6.3879674150        5.9825114235
 Cd        -2.2739815052        5.5406072750       -4.1121664384
 Cd         0.1544523507        4.6148789377       -0.9822948480
 Cd         2.6164916998        3.7534296137        2.4611411512
 Cd         4.3939531493        2.5015493640        5.6447676699
 Cd        -2.3863970614        3.0936940613       -7.5399296996
 Cd        -0.1312551969        1.7709429352       -4.3474013881
 Cd         2.1531592134        0.8600696267       -0.9632038042
 Cd         4.3035354637       -0.4402362235        2.5249059642
 Cd         6.4920330572       -0.6517288343        6.0105822889
 Cd         0.4041600366       -0.5928004448       -7.0621764063
 Cd         2.1512916400       -1.8411508197       -3.9633330582
 Cd         4.1300046137       -2.9779964859       -0.5482421015
 Cd         6.9198218475       -3.7969345352        2.8856362199
 Cd         1.0695984046       -4.7691182083       -6.7907258951
 Cd         3.6506578992       -5.7625094348       -3.6176810919
 Cd         5.7329009809       -6.5639556423       -0.3327557352
 Cd         2.4550129510        8.1223620442       -1.1566611127
 Cd         4.4054134237        7.2898288054        1.7948187644
 Cd         2.3804056586        5.2452131559       -4.8086564602
 Cd         4.8189277835        4.7184996380       -1.4283283266
 Cd         6.7582573021        3.8401913933        2.0311353441
 Cd         2.6216762210        2.7829681049       -7.7033915754
 Cd         4.8492116006        1.7847387852       -4.5232013677
 Cd         6.7276930005        1.0649169510       -0.9631179912
 Cd         8.8867553832        0.4155792479        2.4348471562
 Cd         4.3617877622       -0.9227778379       -7.7309491808
 Cd         6.7427560127       -1.9756415163       -4.2012434946
 Cd         8.5291621891       -2.6208105406       -0.2527702073
 Se        -9.0549326348        0.2430647648        0.9182235520
 Se        -6.3727892677       -0.6564697074        4.4183475269
 Se        -3.9344497980       -1.3489033364        8.2968010320
 Se        -6.5830938268       -3.7425923148        1.3879897305
 Se        -4.5790608146       -4.2749737991        4.8598398501
 Se        -4.6122734257       -7.7767949525        1.5327867381
 Se        -6.6424335796        3.9855516562        0.4574756669
 Se        -4.0719824447        2.6208214613        3.9143931799
 Se        -1.6332129674        2.0118638416        7.9253607357
 Se        -6.7119934191        0.9830917400       -3.1653458854
 Se        -4.4071273542       -0.2112281418        0.3948704143
 Se        -2.0530582429       -1.1152735010        4.2594485797
 Se         0.4059768599       -1.5661473736        8.0652203689
 Se        -4.4161027956       -3.1301212024       -2.8047677581
 Se        -2.2373456988       -4.0915982727        0.9472263417
 Se         0.1529982319       -4.8126992768        4.4858513251
 Se        -2.4165404063       -7.4208330237       -2.0539095833
 Se        -0.0668108436       -7.8793690828        1.3095772359
 Se        -4.5523812804        7.5948879483       -0.0127970289
 Se        -1.8469473990        6.3633607124        3.5402555525
 Se         0.4037375202        5.8261208098        7.5862026506
 Se        -4.4662561543        4.5540249229       -3.3489500922
 Se        -2.0809560890        3.7152168360        0.3431668483
 Se         0.4982894802        2.6969199465        3.7287977080
 Se         2.7718022562        1.9958792524        7.6263591867
 Se        -4.6134027596        2.0747827372       -6.9049416655
 Se        -2.2789309661        0.8534893265       -3.1261312336
 Se         0.0146264937       -0.1632481973        0.3854338935
 Se         2.3129929415       -1.3187649735        3.9991594691
 Se         4.8632272945       -1.8842853604        7.7355757853
 Se        -2.0700880448       -1.9664444180       -6.4604115673
 Se        -0.0446250139       -3.1600188972       -2.8087772902
 Se         2.2322800000       -4.2314944641        0.7809571120
 Se         4.8362636882       -4.9532020994        4.0967359109
 Se        -0.7551686194       -6.2850900837       -5.8413987296
 Se         1.9250136998       -7.4791957240       -2.6077097809
 Se         4.2593277615       -8.3794484487        0.7362886238
 Se         0.0355919813        7.3686817032       -0.4913549545
 Se         2.3810062884        6.5252055897        3.1426973445
 Se         0.0437955469        4.4288163876       -3.5940803415
 Se         2.5163941552        3.6274298117       -0.0570990636
 Se         4.7728096349        2.4660705532        3.1252714972
 Se         0.0454934816        1.9300992620       -6.9706643805
 Se         2.2759004713        0.7649207704       -3.6570715923
 Se         4.3767240569       -0.2853642032       -0.0179622792
 Se         6.9677356557       -1.1294880161        3.5581283340
 Se         2.2371241479       -2.2683375282       -6.6838339496
 Se         4.3737971374       -3.1974783236       -3.2156914636
 Se         6.4331042335       -4.1117271522        0.4128013698
 Se         4.8518498522        7.5524243867       -0.7460054757
 Se         4.8775249889        4.5490168523       -4.0124254894
 Se         7.0857562535        3.5936229963       -0.6428642642
 Se         4.7819796948        1.5265864999       -7.5555505351
 Se         6.9187883320        0.6112011267       -3.7073470707
 Se         9.1070218133       -0.0626496828       -0.0924446396
  C         6.9966702506       -6.9497957630       -2.8612716031
  H         7.7649322095       -7.1224747738       -3.6684216540
  O         5.8444423947       -6.4674450897       -3.1399753666
  O         7.2894166297       -7.2745266812       -1.6944058331
  C         3.3950855045       -6.2672819691       -6.9491570464
  H         4.3444066225       -6.8936096686       -7.0753272229
  O         3.0188718168       -5.7910097313       -5.7826409301
  O         2.6179276405       -6.1690721485       -7.9241319158
  C         6.3106270886       -2.9078655077       -7.4910058514
  H         7.1299137504       -3.7048862282       -7.4466889051
  O         6.0084652571       -2.3183087596       -6.3480300495
  O         5.9395462922       -2.4744346825       -8.6125610838
  C         8.9774127683       -3.3708896749       -3.4296313940
  H         9.9250180562       -3.8774829974       -3.1826003730
  O         8.5685339851       -3.4150914268       -4.6046547082
  O         8.2718738844       -2.6969034924       -2.5205354563
  C         9.7980410077       -4.6251877022        2.1809847476
  H        10.6408655401       -5.3318691344        2.3887999993
  O         9.7475439125       -4.1807681123        0.9928910488
  O         9.0292843180       -4.5683709248        3.1871601368
  C        -2.8217177170       -8.8884030453        5.3598599627
  H        -2.4154187803       -9.9024293192        5.4343946394
  O        -1.9849520110       -7.9306992561        5.0424270199
  O        -4.0904206571       -8.7275727063        5.4045570169
  C         2.9969125837       -8.6915855213        5.2874323637
  H         2.6967725338       -9.0398269484        6.2934215078
  O         1.9998347026       -8.3580942481        4.5596066468
  O         4.2232332265       -8.6014842471        4.9169612573
  C         2.8792856649       -5.7053294045        8.2323992281
  H         2.3955873073       -6.3773024893        8.9303283437
  O         2.2195439397       -4.8091323622        7.6165039910
  O         4.1497286205       -5.9038026818        8.1538626873
  C        -2.5347046154       -5.9173520768        8.5219641698
  H        -2.0052498086       -6.7390725628        9.0096019785
  O        -1.9212503771       -5.2586186704        7.5984378550
  O        -3.6522255887       -5.5087029253        8.8929844701
  C        -6.8630607241        2.3027116913        7.3891583095
  H        -7.2086193538        3.3071349018        7.3885257928
  O        -5.6217052135        2.1591650607        7.5338987768
  O        -7.6697090054        1.3704497274        7.2000022230
  C        -4.1170079645        6.2827825080        7.2281580649
  H        -5.2418933127        6.2896177269        7.3832000201
  O        -3.5270294590        5.2292144702        6.7739686398
  O        -3.5912065371        7.4673787696        7.3180946741
  C        -6.2567265948        7.1462137753        4.0781050308
  H        -7.2111390447        7.1649409639        4.6689854642
  O        -5.8090696593        6.0482967966        3.6281324894
  O        -5.6132620640        8.2209663519        3.8492255062
  C        -9.2741835047        2.9617361914        4.4604884471
  H        -9.7855372140        3.8838940690        4.7760086716
  O        -8.0589973838        3.0118575476        4.1194127255
  O       -10.0814683855        1.9796639882        4.3924653491
  C        -9.6032546307       -3.5282060325        4.2551521008
  H       -10.5971720209       -3.6001750875        4.7566807035
  O        -9.3833997218       -2.7227631724        3.2943373124
  O        -8.6795006351       -4.3021796308        4.7633955843
  C        -5.4081387618       -6.0792097294       -6.1561687045
  H        -6.0546960796       -6.5859836395       -6.8890942905
  O        -5.3112936953       -6.5041878162       -4.9657553014
  O        -4.7988948220       -5.0928531188       -6.6854132488
  C        -7.4874781261       -7.2705344487       -1.8348007139
  H        -7.8388434959       -7.7173330376       -2.7530342297
  O        -6.3889228754       -6.5550476476       -1.8845567770
  O        -8.0719121747       -7.4410562163       -0.7459990758
  C        -9.2562428334       -3.4270114671       -2.1219645136
  H        -9.5270787848       -4.0663584857       -2.9594189931
  O        -8.1699500997       -2.7554816251       -2.2726255135
  O        -9.8243613596       -3.4941210541       -1.0093802123
  C        -6.7206957661       -1.5101673961       -7.0045752777
  H        -7.7450574417       -1.9674181007       -7.1698505571
  O        -6.3198318412       -1.2782517848       -5.7994944066
  O        -6.0637798498       -1.2637088553       -8.0157712514
  C        -1.9628827983        5.6954844548       -7.4852938628
  H        -1.7770888886        6.7764005651       -7.4923242406
  O        -2.4611625027        5.1869831034       -6.4090741831
  O        -1.7562257767        5.0409990313       -8.5286239431
  C        -1.7168688889        9.0074822303       -3.7839166132
  H        -1.3493405476        9.2660238074       -4.8465614694
  O        -1.7699898423        7.7200081735       -3.5247239188
  O        -1.9637064884        9.8897274727       -2.9410154226
  C         2.5062190945        8.6538643678       -4.1272910728
  H         2.7131102182        9.0638249498       -5.0476060874
  O         2.0944359196        7.4536571257       -4.0305917186
  O         2.6627236762        9.4113441218       -3.1555157168
  C         1.7411302942        5.3672397234       -8.1968448598
  H         1.4358383610        6.4416008070       -8.3632925476
  O         2.2780690634        5.0767960492       -7.0415450792
  O         1.5311865148        4.4835990695       -9.0177446732
  C         9.4768439415        2.6096230983        3.9000102204
  H         9.6131090334        3.4671477718        4.5843902861
  O         8.5283713958        2.7173834074        3.0494866968
  O        10.1887465923        1.5403410801        4.0333591351
  C         6.6326459125        7.0382756706        3.3282154855
  H         7.5082674956        7.1289998248        4.0070788575
  O         6.4945822455        6.1606694481        2.4467292700
  O         5.7957552978        7.9031032278        3.5815879640
  C         4.7447755005        5.8524700302        6.9353700129
  H         5.7085862008        5.7040540943        7.4370666698
  O         4.3287174573        4.9886303787        6.0815310909
  O         4.1462719644        6.9225684002        7.1374885747
  C         7.5603309323        1.7452823701        7.1878507085
  H         8.1158840311        2.6116602203        7.6593692779
  O         6.7460760350        2.0302000804        6.2245417562
  O         7.8436587639        0.5822956945        7.5896422029
     227
 i =        2, time =        2.000, E =       -12.9945866299
 Cd        -8.6169507250        0.4782449174        3.4769692376
 Cd        -5.8712316288       -0.2574727238        7.1134700276
 Cd        -8.4089551889       -2.1554670308        0.3834669196
 Cd        -6.8895485149       -3.2936902215        3.9621722028