     227
 i =        0, time =        0.000, E =        -1.2623286029
 Cd        -8.6216924880        0.4810107428        3.4775887729
 Cd        -5.8723589632       -0.2566559957        7.1151373767
 Cd        -8.4076147924       -2.1531404527        0.3867588804
 Cd        -6.8957642261       -3.2896665849        3.9600318291
 Cd        -3.6930098048       -3.6992689615        7.3819491709
 Cd        -6.4429261463       -6.2347087238        0.4622469067
 Cd        -4.3123952394       -6.8285875372        3.9039095072
 Cd        -6.1141073353        3.8626235599        2.9066844924
 Cd        -3.6048790416        2.8797284733        6.5917986711
 Cd        -6.7531255596        1.1841266196       -0.3182182747
 Cd        -4.0437606329        0.0729837467        3.0511954168
 Cd        -1.7753257667       -0.3121054857        6.8316599018
 Cd        -6.3661028473       -1.4630135273       -3.4383357626
 Cd        -4.3602814436       -3.1214810613       -0.1759283953
 Cd        -2.2424276819       -3.6242998489        3.6335413818
 Cd         0.1757294635       -3.9625201566        7.0364714760
 Cd        -4.2692200317       -5.9860442556       -3.0005266361
 Cd        -2.2482225396       -6.7972628816        0.6786391664
 Cd         0.0669003827       -7.3030327295        3.8545421700
 Cd        -4.0792754193        7.4105475565        2.4175118797
 Cd        -1.6116442377        6.4880648240        6.2478272306
 Cd        -4.3308002626        4.8127262164       -0.6762739309
 Cd        -1.8326132452        3.6694977750        3.1598212265
 Cd         0.4939817277        3.1637060931        6.7202662426
 Cd        -4.5980154021        1.9988297698       -4.0880170010
 Cd        -2.1651194586        1.0165564496       -0.4536921834
 Cd         0.1376109507       -0.0659106884        3.1336818174
 Cd         2.6419074521       -0.6636939286        6.8958319365
 Cd        -4.1515129292       -0.5348426091       -6.9620217917
 Cd        -2.2012490343       -1.8491984656       -3.4894107829
 Cd         0.0359311218       -2.8494155653       -0.0264680683
 Cd         2.4407298775       -3.8224684908        3.5289587884
 Cd         4.5907434619       -4.2169180472        6.5928471603
 Cd        -2.6321953796       -4.5685798778       -6.0773989300
 Cd        -0.3638438279       -6.1221236347       -3.0620735359
 Cd         1.9882729153       -6.8506852632       -0.0376753302
 Cd         4.3604701588       -7.5063202656        3.0981086138
 Cd        -2.4313710890        8.2839908015       -1.2010761441
 Cd         0.1210964618        6.7915494583        2.0748938605
 Cd         2.2602783261        6.3879934074        5.9824457591
 Cd        -2.2743307721        5.5403016700       -4.1096429978
 Cd         0.1552258413        4.6164378819       -0.9814446932
 Cd         2.6173372932        3.7540356816        2.4616712460
 Cd         4.3934694910        2.5024270436        5.6448470259
 Cd        -2.3839877703        3.0961459608       -7.5397423510
 Cd        -0.1308699873        1.7716472388       -4.3458913396
 Cd         2.1522040622        0.8595996928       -0.9600505658
 Cd         4.3027041934       -0.4425155449        2.5248589789
 Cd         6.4943132815       -0.6514444341        6.0110723312
 Cd         0.4032906214       -0.5920449882       -7.0625722312
 Cd         2.1504065746       -1.8410095193       -3.9631978812
 Cd         4.1282053355       -2.9764966895       -0.5499119195
 Cd         6.9189885741       -3.8001688729        2.8840486736
 Cd         1.0693858855       -4.7693596381       -6.7909688629
 Cd         3.6529341800       -5.7620820022       -3.6150795142
 Cd         5.7341856059       -6.5625995016       -0.3323817960
 Cd         2.4532379782        8.1225833618       -1.1556872380
 Cd         4.4025673150        7.2904811152        1.7928276254
 Cd         2.3800547108        5.2453457502       -4.8107637235
 Cd         4.8184663347        4.7191125514       -1.4277792117
 Cd         6.7589411702        3.8390778732        2.0295448973
 Cd         2.6210634084        2.7844913241       -7.7035228004
 Cd         4.8495943395        1.7843685348       -4.5225056138
 Cd         6.7261500983        1.0662237140       -0.9642295531
 Cd         8.8881450478        0.4141445330        2.4369093904
 Cd         4.3615782352       -0.9213178924       -7.7328888960
 Cd         6.7438649008       -1.9767569930       -4.2031112584
 Cd         8.5272445020       -2.6218905711       -0.2551455218
 Se        -9.0557725106        0.2424574140        0.9180313808
 Se        -6.3745872764       -0.6570220647        4.4225742627
 Se        -3.9358548519       -1.3506397678        8.2925868769
 Se        -6.5830028390       -3.7408669090        1.3890860046
 Se        -4.5802302415       -4.2716541219        4.8585926421
 Se        -4.6110671623       -7.7792240778        1.5343213278
 Se        -6.6407812351        3.9866809498        0.4586064126
 Se        -4.0705866514        2.6241591830        3.9150270775
 Se        -1.6315747320        2.0143859544        7.9219454430
 Se        -6.7106235468        0.9827493806       -3.1628202938
 Se        -4.4077684895       -0.2106461950        0.3970531668
 Se        -2.0534879979       -1.1190641497        4.2604482105
 Se         0.4069246601       -1.5676855049        8.0617057342
 Se        -4.4126107232       -3.1307459794       -2.8028288282
 Se        -2.2371864822       -4.0884616040        0.9473336128
 Se         0.1541797359       -4.8148952714        4.4843326207
 Se        -2.4147106009       -7.4199706225       -2.0529393442
 Se        -0.0662571417       -7.8800811154        1.3078284855
 Se        -4.5519687636        7.5920037884       -0.0122560791
 Se        -1.8482840651        6.3647212661        3.5390459072
 Se         0.4006735392        5.8241498358        7.5878867146
 Se        -4.4655945585        4.5529209660       -3.3484418515
 Se        -2.0798083538        3.7153034916        0.3451575142
 Se         0.4973892782        2.6967113851        3.7286137790
 Se         2.7724753484        1.9958260876        7.6298945277
 Se        -4.6126224962        2.0736182894       -6.9031574659
 Se        -2.2770211290        0.8531533747       -3.1284312065
 Se         0.0138865169       -0.1636477002        0.3858468104
 Se         2.3115473387       -1.3198431962        4.0017354986
 Se         4.8624545925       -1.8855864388        7.7371297607
 Se        -2.0700877949       -1.9675257511       -6.4603372509
 Se        -0.0447057629       -3.1582708631       -2.8090856920
 Se         2.2343306950       -4.2299664240        0.7817840723
 Se         4.8342987615       -4.9516929708        4.0974643468
 Se        -0.7556003326       -6.2829108386       -5.8406699955
 Se         1.9243057511       -7.4784768035       -2.6074198353
 Se         4.2543989663       -8.3809591814        0.7363809319
 Se         0.0386925703        7.3677075300       -0.4939635450
 Se         2.3791568525        6.5289221229        3.1400383851
 Se         0.0465974103        4.4270318221       -3.5936563407
 Se         2.5167269427        3.6273521599       -0.0581806204
 Se         4.7705604635        2.4670139639        3.1233546104
 Se         0.0435933033        1.9323944164       -6.9695738842
 Se         2.2733127965        0.7623703678       -3.6584263160
 Se         4.3816175435       -0.2841549253       -0.0177063702
 Se         6.9670500347       -1.1290204494        3.5565582379
 Se         2.2410869402       -2.2702007814       -6.6798205275
 Se         4.3723294721       -3.1971869108       -3.2130677403
 Se         6.4331938555       -4.1098532443        0.4136420186
 Se         4.8503033307        7.5509093293       -0.7463548497
 Se         4.8776288797        4.5477652435       -4.0091414448
 Se         7.0830986217        3.5950723552       -0.6434567968
 Se         4.7810064642        1.5273410534       -7.5566303287
 Se         6.9188050062        0.6130038217       -3.7081238627
 Se         9.1066871843       -0.0609359671       -0.0919647969
  C         6.9955771113       -6.9586634775       -2.8583426301
  H         7.7780160969       -7.1271873265       -3.6573399650
  O         5.8389952916       -6.4652991204       -3.1445809228
  O         7.2920676004       -7.2683568805       -1.6893132711
  C         3.3939431960       -6.2668607509       -6.9513074648
  H         4.3245440932       -6.8689211647       -7.0591687882
  O         3.0202466073       -5.7860511295       -5.7843136273
  O         2.6220129789       -6.1746538788       -7.9242101403
  C         6.3116555909       -2.9071154185       -7.4921130606
  H         7.0978863851       -3.7212906458       -7.4285512081
  O         6.0096715894       -2.3219711192       -6.3505932827
  O         5.9403243477       -2.4750431756       -8.6116316973
  C         8.9837561036       -3.3697375837       -3.4349055328
  H         9.9249943929       -3.8864043165       -3.1840078659
  O         8.5659407989       -3.4209184445       -4.6048832464
  O         8.2714489672       -2.6971151254       -2.5207012617
  C         9.7902109758       -4.6282247391        2.1768529346
  H        10.6284324694       -5.3337138149        2.3552924638
  O         9.7484501532       -4.1824896055        0.9942458601
  O         9.0219926648       -4.5705851174        3.1873629795
  C        -2.8252708508       -8.8894178348        5.3653894160
  H        -2.3915771747       -9.8892286280        5.4446685031
  O        -1.9808601030       -7.9304545651        5.0436955975
  O        -4.0908415257       -8.7280019527        5.4030844137
  C         3.0047406823       -8.6887063298        5.2919739424
  H         2.6853413808       -9.0312323512        6.2714246943
  O         1.9985977812       -8.3553887881        4.5599054594
  O         4.2197147413       -8.6069092298        4.9235206312
  C         2.8732291572       -5.7090624943        8.2322507888
  H         2.4095730423       -6.3582442170        8.9295273658
  O         2.2236878889       -4.8031284854        7.6183804854
  O         4.1525405945       -5.8988692439        8.1468427445
  C        -2.5324052264       -5.9090323801        8.5168983878
  H        -2.0058427467       -6.7599986745        9.0204193621
  O        -1.9189018681       -5.2527647032        7.5983339134
  O        -3.6521974131       -5.4981014961        8.8936623702
  C        -6.8661340661        2.3082426882        7.3884767521
  H        -7.2433530482        3.2983326111        7.3747512577
  O        -5.6189307919        2.1553364867        7.5292857639
  O        -7.6694328727        1.3672322100        7.2032576312
  C        -4.1128935570        6.2776012356        7.2258109093
  H        -5.2184092536        6.2949225170        7.4003980339
  O        -3.5215502414        5.2331222329        6.7794929280
  O        -3.5956064510        7.4679880815        7.3184340370
  C        -6.2584500423        7.1467273309        4.0778865765
  H        -7.2018864753        7.1620259062        4.6862261037
  O        -5.8042352338        6.0508881806        3.6277903665
  O        -5.6141473350        8.2227071687        3.8530055117
  C        -9.2670155991        2.9624473135        4.4549609073
  H        -9.7760873251        3.8307467380        4.7753730710
  O        -8.0580447847        3.0137717908        4.1153681461
  O       -10.0869615960        1.9755230626        4.3964141791
  C        -9.5997958208       -3.5202239981        4.2555074891
  H       -10.6284324694       -3.6062117458        4.7363993397
  O        -9.3836198173       -2.7271085544        3.2939504316
  O        -8.6749593009       -4.3055307223        4.7674147240
  C        -5.4063829718       -6.0836320759       -6.1576393485
  H        -6.0390997038       -6.5934387315       -6.8768176703
  O        -5.3157147411       -6.5042627408       -4.9638375967
  O        -4.7997118332       -5.0931497246       -6.6842330004
  C        -7.4812021438       -7.2683192216       -1.8337008205
  H        -7.8430239833       -7.7214409635       -2.7403108931
  O        -6.3847231004       -6.5596142310       -1.8855223803
  O        -8.0870004405       -7.4369608581       -0.7449951352
  C        -9.2637717352       -3.4248031045       -2.1287629167
  H        -9.5435102925       -4.0726156799       -2.9624854104
  O        -8.1685743898       -2.7562864935       -2.2769679175
  O        -9.8293124780       -3.4993302663       -1.0042472880
  C        -6.7198117275       -1.5155721631       -7.0057360974
  H        -7.7266400310       -1.9701098143       -7.1795729881
  O        -6.3208037730       -1.2812141421       -5.7891801227
  O        -6.0546670581       -1.2647410752       -8.0219575549
  C        -1.9610306020        5.6962737072       -7.4797868569
  H        -1.8068881661        6.7616764611       -7.4798700689
  O        -2.4613788677        5.1953402046       -6.4147373301
  O        -1.7592038190        5.0404242691       -8.5376948407
  C        -1.7153677193        9.0065729983       -3.7807068554
  H        -1.3518565997        9.2891789052       -4.8285272378
  O        -1.7735635219        7.7204009534       -3.5311974415
  O        -1.9589811591        9.8892286280       -2.9296575010
  C         2.5176986766        8.6527359013       -4.1276241396
  H         2.7356319561        9.0838176512       -5.0545617483
  O         2.0941304229        7.4607563111       -4.0382054964
  O         2.6632020791        9.4136986823       -3.1567247192
  C         1.7405814703        5.3615037054       -8.2026998584
  H         1.4592813282        6.4433815072       -8.3446733349
  O         2.2712544771        5.0744229803       -7.0359036782
  O         1.5374971892        4.4786315137       -9.0204193621
  C         9.4791869119        2.6134878200        3.9079418032
  H         9.6264681644        3.4611325178        4.5867541287
  O         8.5294682966        2.7206869475        3.0468687327
  O        10.1884170796        1.5361363159        4.0354546634
  C         6.6320899766        7.0427804887        3.3240585285
  H         7.5183451153        7.1103565644        4.0025867163
  O         6.4921259472        6.1579139584        2.4473334656
  O         5.8014508194        7.8970951585        3.5804466065
  C         4.7468288793        5.8510846562        6.9391041765
  H         5.6837062732        5.7110173508        7.4566454645
  O         4.3315486404        4.9881730889        6.0840680113
  O         4.1390624477        6.9214380767        7.1338855679
  C         7.5642974957        1.7429307679        7.1823006621
  H         8.1116275708        2.6102062210        7.6466333920
  O         6.7423080014        2.0330978891        6.2208765696
  O         7.8434776238        0.5800715711        7.5931108165
     227
 i =        1, time =        1.000, E =        -1.2862488252
 Cd        -8.6193168244        0.4795873295        3.4772521849
 Cd        -5.8717196365       -0.2571541641        7.1143174971
 Cd        -8.4082235739       -2.1542420262        0.3851605411
 Cd        -6.8926588907       -3.2917109239        3.9611121108
 Cd        -3.6901927892       -3.7004908629        7.3822784133
 Cd        -6.4420238835       -6.2357174812        0.4643029531
 Cd        -4.3123269961       -6.8295575472        3.9053589174
 Cd        -6.1164393090        3.8609137952        2.9057377055
 Cd        -3.6067293899        2.8812714242        6.5902883995
 Cd        -6.7534100807        1.1872553124       -0.3192282107
 Cd        -4.0444733377        0.0755153797        3.0501377670
 Cd        -1.7741934239       -0.3126952346        6.8335034781
 Cd        -6.3661235008       -1.4626960652       -3.4401662626
 Cd        -4.3614609185       -3.1217167499       -0.1745220693
 Cd        -2.2425885289       -3.6217073808        3.6335848906
 Cd         0.1785743338       -3.9616440847        7.0369285475
 Cd        -4.2694571992       -5.9880474126       -2.9988653560
 Cd        -2.2488757416       -6.7965224561        0.6791121736
 Cd         0.0677218382       -7.3031034236        3.8542836841
 Cd        -4.0801374068        7.4119050400        2.4184502063
 Cd        -1.6108992236        6.4880655268        6.2508312114
 Cd        -4.3325041761        4.8128527083       -0.6769237634
 Cd        -1.8303853421        3.6696563418        3.1588771102
 Cd         0.4898097119        3.1633829131        6.7204226299
 Cd        -4.5994331030        2.0001206546       -4.0891307612
 Cd        -2.1629351713        1.0182106678       -0.4517351840
 Cd         0.1384087710       -0.0680926482        3.1343796475
 Cd         2.6424404329       -0.6635287082        6.8957839984
 Cd        -4.1540775704       -0.5351211493       -6.9611207479
 Cd        -2.2031970496       -1.8490275452       -3.4901029712
 Cd         0.0357920376       -2.8474821939       -0.0251049219
 Cd         2.4397512628       -3.8217042625        3.5304164081
 Cd         4.5938441827       -4.2152195332        6.5946806047
 Cd        -2.6317817365       -4.5698879464       -6.0785078700
 Cd        -0.3609266299       -6.1209174990       -3.0631491950
 Cd         1.9864720531       -6.8522922326       -0.0374199565
 Cd         4.3579034734       -7.5047883391        3.0973120918
 Cd        -2.4319223639        8.2868069902       -1.2004142168
 Cd         0.1211434316        6.7912004266        2.0745922929
 Cd         2.2581311918        6.3879910921        5.9823918708
 Cd        -2.2739419417        5.5406313176       -4.1121684870
 Cd         0.1544522621        4.6148706134       -0.9822436310
 Cd         2.6164616036        3.7534817074        2.4612131344
 Cd         4.3939425510        2.5015355884        5.6447930625
 Cd        -2.3863392923        3.0936322834       -7.5399575647
 Cd        -0.1312501165        1.7709258493       -4.3473792261
 Cd         2.1531186248        0.8600911747       -0.9631913791
 Cd         4.3035529483       -0.4402361889        2.5249708399
 Cd         6.4920097754       -0.6517199062        6.0106162720
 Cd         0.4040998337       -0.5928086496       -7.0622019431
 Cd         2.1512501817       -1.8411689237       -3.9633169538
 Cd         4.1299883845       -2.9779733601       -0.5482377611
 Cd         6.9198060433       -3.7969044722        2.8857084581
 Cd         1.0695748544       -4.7690264985       -6.7907664832
 Cd         3.6506465407       -5.7624827075       -3.6176349268
 Cd         5.7328305065       -6.5638933946       -0.3327125967
 Cd         2.4549391004        8.1223915943       -1.1566344120
 Cd         4.4054062871        7.2898530082        1.7947910004
 Cd         2.3803997630        5.2451798479       -4.8086046108
 Cd         4.8188626102        4.7185145446       -1.4282560832
 Cd         6.7582465459        3.8402102101        2.0311228836
 Cd         2.6216047230        2.7829635883       -7.7033927925
 Cd         4.8490961535        1.7847707729       -4.5232452842
 Cd         6.7276385804        1.0648465161       -0.9630988413
 Cd         8.8867556933        0.4155550220        2.4348746857
 Cd         4.3617322519       -0.9228535207       -7.7309798018
 Cd         6.7427167045       -1.9756375658       -4.2012223435
 Cd         8.5291733826       -2.6208034901       -0.2527307102
 Se        -9.0551087888        0.2432226064        0.9181471072
 Se        -6.3728249716       -0.6564336730        4.4183809593
 Se        -3.9343858301       -1.3488473708        8.2970515954
 Se        -6.5830963755       -3.7426295840        1.3879486735
 Se        -4.5790914198       -4.2750456349        4.8599189754
 Se        -4.6123095407       -7.7770232118        1.5327300192
 Se        -6.6426149484        3.9855839841        0.4573179594
 Se        -4.0720485613        2.6208100717        3.9144751931
 Se        -1.6331384894        2.0119424783        7.9256309844
 Se        -6.7122614637        0.9832543226       -3.1653013489
 Se        -4.4071945332       -0.2112600552        0.3948322412
 Se        -2.0530289349       -1.1152357006        4.2595159624
 Se         0.4059633191       -1.5661075500        8.0654011000
 Se        -4.4161644553       -3.1302293636       -2.8048529289
 Se        -2.2372895415       -4.0916262289        0.9472400977
 Se         0.1529603576       -4.8126838779        4.4858996034
 Se        -2.4165196854       -7.4210737156       -2.0538760455
 Se        -0.0667199557       -7.8796049687        1.3095722102
 Se        -4.5526382705        7.5949425610       -0.0129427027
 Se        -1.8471080388        6.3634089916        3.5403960477
 Se         0.4037665762        5.8260964187        7.5865134082
 Se        -4.4664727507        4.5540881946       -3.3489685249
 Se        -2.0809704533        3.7152075426        0.3431788776
 Se         0.4983567191        2.6968617664        3.7288919078
 Se         2.7718246033        1.9959070578        7.6265701737
 Se        -4.6136334578        2.0748472061       -6.9049828139
 Se        -2.2789903786        0.8535024849       -3.1261498239
 Se         0.0146700857       -0.1632561559        0.3854565215
 Se         2.3129946034       -1.3186798018        3.9992863356
 Se         4.8632890951       -1.8842625063        7.7357884465
 Se        -2.0700072503       -1.9664733749       -6.4604613142
 Se        -0.0445521695       -3.1601120784       -2.8087816118
 Se         2.2322619934       -4.2315580597        0.7809831126
 Se         4.8362985360       -4.9533027508        4.0967451104
 Se        -0.7551773008       -6.2853620274       -5.8414115050
 Se         1.9250276222       -7.4794034669       -2.6077978934
 Se         4.2592973541       -8.3797070764        0.7361832465
 Se         0.0355417769        7.3687601288       -0.4914340475
 Se         2.3810923764        6.5252064309        3.1428716434
 Se         0.0438469673        4.4288470277       -3.5941518413
 Se         2.5164408844        3.6274158285       -0.0572695426
 Se         4.7729127375        2.4659990372        3.1252265409
 Se         0.0454770772        1.9302640415       -6.9708077190
 Se         2.2759944436        0.7650006046       -3.6571120714
 Se         4.3768114761       -0.2853503560       -0.0180875761
 Se         6.9677887612       -1.1294985145        3.5580480213
 Se         2.2372745984       -2.2684942360       -6.6838914599
 Se         4.3739037950       -3.1974887360       -3.2157576536
 Se         6.4331069440       -4.1117654904        0.4126570935
 Se         4.8521351212        7.5524542006       -0.7461260215
 Se         4.8776329580        4.5490781402       -4.0125857109
 Se         7.0859424291        3.5937558562       -0.6428979633
 Se         4.7822467577        1.5267172874       -7.5555674140
 Se         6.9190206456        0.6112011856       -3.7073674297
 Se         9.1071754109       -0.0625801752       -0.0925751298
  C         6.9966790781       -6.9498439937       -2.8612693682
  H         7.7649322095       -7.1224747738       -3.6684216540
  O         5.8448782051       -6.4676436132       -3.1399970095
  O         7.2901326458       -7.2748847458       -1.6950235230
  C         3.3950640311       -6.2673083711       -6.9491831487
  H         4.3444066225       -6.8936096686       -7.0753272229
  O         3.0189910650       -5.7912274234       -5.7831752027
  O         2.6181886718       -6.1693336585       -7.9243335280
  C         6.3106280220       -2.9078493256       -7.4910600265
  H         7.1299137504       -3.7048862282       -7.4466889051
  O         6.0084864678       -2.3184871490       -6.3484771591
  O         5.9398241450       -2.4746874231       -8.6127255443
  C         8.9774514772       -3.3708799209       -3.4296503610
  H         9.9250180562       -3.8774829974       -3.1826003730
  O         8.5688697573       -3.4153425299       -4.6047526607
  O         8.2721109180       -2.6970537423       -2.5209051849
  C         9.7980776033       -4.6252020629        2.1809992642
  H        10.6408655401       -5.3318691344        2.3887999993
  O         9.7479932216       -4.1810856673        0.9931211131
  O         9.0299477711       -4.5686309960        3.1872754082
  C        -2.8217323097       -8.8884413413        5.3598597111
  H        -2.4154187803       -9.9024293192        5.4343946394
  O        -1.9851102111       -7.9308549006        5.0426048704
  O        -4.0904129961       -8.7278515565        5.4047632126
  C         2.9969226882       -8.6916259144        5.2874261075
  H         2.6967725338       -9.0398269484        6.2934215078
  O         2.0001957689       -8.3583903478        4.5598046101
  O         4.2231626850       -8.6021823026        4.9180418911
  C         2.8793060440       -5.7053267552        8.2324304825
  H         2.3955873073       -6.3773024893        8.9303283437
  O         2.2199423732       -4.8094133357        7.6167777788
  O         4.1496620492       -5.9041532385        8.1542189076
  C        -2.5347140373       -5.9173474726        8.5220107447
  H        -2.0052498086       -6.7390725628        9.0096019785
  O        -1.9211313559       -5.2590075214        7.5985706070
  O        -3.6522242920       -5.5090465691        8.8932969046
  C        -6.8630686881        2.3027054326        7.3892114314
  H        -7.2086193538        3.3071349018        7.3885257928
  O        -5.6220783559        2.1593033471        7.5341640227
  O        -7.6699916648        1.3706918392        7.2000671026
  C        -4.1169953631        6.2828064145        7.2281949363
  H        -5.2418933127        6.2896177269        7.3832000201
  O        -3.5274039405        5.2294001497        6.7741617406
  O        -3.5914494957        7.4675116128        7.3182569645
  C        -6.2567447557        7.1462465942        4.0780913765
  H        -7.2111390447        7.1649409639        4.6689854642
  O        -5.8092159753        6.0486391571        3.6283834719
  O        -5.6137703508        8.2212564764        3.8496665528
  C        -9.2742248967        2.9617595002        4.4604758154
  H        -9.7855372140        3.8838940690        4.7760086716
  O        -8.0592325090        3.0118911704        4.1195767936
  O       -10.0818707320        1.9800572413        4.3926973175
  C        -9.6032829564       -3.5282220490        4.2551689359
  H       -10.5971720209       -3.6001750875        4.7566807035
  O        -9.3836930594       -2.7227952390        3.2943863026
  O        -8.6802354944       -4.3026021454        4.7637297078
  C        -5.4081381935       -6.0792372584       -6.1561981017
  H        -6.0546960796       -6.5859836395       -6.8890942905
  O        -5.3116047022       -6.5043845381       -4.9662468751
  O        -4.7993846939       -5.0929924882       -6.6855869383
  C        -7.4874959271       -7.2705786685       -1.8347932277
  H        -7.8388434959       -7.7173330376       -2.7530342297
  O        -6.3891523848       -6.5552070497       -1.8848405622
  O        -8.0722180871       -7.4412881029       -0.7462177813
  C        -9.2562833106       -3.4269961830       -2.1219774973
  H        -9.5270787848       -4.0663584857       -2.9594189931
  O        -8.1701522452       -2.7556097471       -2.2726515333
  O        -9.8246079613       -3.4943110881       -1.0095807886
  C        -6.7207120693       -1.5101410593       -7.0046044030
  H        -7.7450574417       -1.9674181007       -7.1698505571
  O        -6.3200257798       -1.2783201591       -5.7999098725
  O        -6.0642655823       -1.2638849998       -8.0160547682
  C        -1.9629127971        5.6954913342       -7.4853221122
  H        -1.7770888886        6.7764005651       -7.4923242406
  O        -2.4612306263        5.1872875739       -6.4093798529
  O        -1.7560729008        5.0415626784       -8.5289440101
  C        -1.7168984315        9.0075150967       -3.7839134131
  H        -1.3493405476        9.2660238074       -4.8465614694
  O        -1.7698726855        7.7204745579       -3.5249043737
  O        -1.9636523411        9.8899997495       -2.9412885720
  C         2.5062448777        8.6538928795       -4.1272905023
  H         2.7131102182        9.0638249498       -5.0476060874
  O         2.0944223992        7.4540655396       -4.0305437110
  O         2.6627643713        9.4115674859       -3.1558514478
  C         1.7411651444        5.3672435666       -8.1968721839
  H         1.4358383610        6.4416008070       -8.3632925476
  O         2.2780222840        5.0770914049       -7.0422096244
  O         1.5310472423        4.4839083827       -9.0180119191
  C         9.4768940147        2.6096289169        3.8999964943
  H         9.6131090334        3.4671477718        4.5843902861
  O         8.5287243233        2.7174805666        3.0497604433
  O        10.1890192627        1.5405596261        4.0336687083
  C         6.6326644718        7.0383136344        3.3281993562
  H         7.5082674956        7.1289998248        4.0070788575
  O         6.4948126341        6.1609418729        2.4468664060
  O         5.7960801104        7.9032636578        3.5819301330
  C         4.7447647765        5.8524868762        6.9354071095
  H         5.7085862008        5.7040540943        7.4370666698
  O         4.3289506625        4.9887501277        6.0816314556
  O         4.1468187836        6.9227346460        7.1378476280
  C         7.5603398214        1.7452805301        7.1878930445
  H         8.1158840311        2.6116602203        7.6593692779
  O         6.7463602633        2.0302784186        6.2246723966
  O         7.8438656675        0.5824744494        7.5898959323
     227
 i =        2, time =        2.000, E =        -1.3435920083
 Cd        -8.6168991999        0.4780992944        3.4770974187
 Cd        -5.8714964462       -0.2574910793        7.1133341007
 Cd        -8.4088959373       -2.1555978311        0.3833829049
 Cd        -6.8894190589       -3.2935466008        3.9622139487