#     Step Nr.          Time[fs]        Kin.[a.u.]          Temp[K]            Pot.[a.u.]        Cons Qty[a.u.]        UsedTime[s]
         0            0.000000         0.320640054       300.000000000       -19.778941079       -19.458301025         0.000000000
         1            1.000000         0.333073722       311.633295871       -19.792149471       -19.458732611         0.344091000
         2            2.000000         0.355671225       332.776165472       -19.815903462       -19.459335839         0.029860000
         3            3.000000         0.380408282       355.920862945       -19.841129306       -19.459647690         0.028610000
         4            4.000000         0.403826620       377.831729322       -19.863303004       -19.459428640         0.030873000
         5            5.000000         0.426403810       398.955593900       -19.885872494       -19.458850472         0.028043000
         6            6.000000         0.459574263       429.990817776       -19.917638425       -19.458387053         0.029867000
         7            7.000000         0.507245651       474.593531295       -19.965640287       -19.458370154         0.032719000
         8            8.000000         0.570315372       533.603365644       -20.029794100       -19.458832431         0.034246000
         9            9.000000         0.642759443       601.384109490       -20.102974459       -19.459363611         0.033427000
        10           10.000000         0.716205362       670.102210166       -20.177195091       -19.459525240         0.031552000
        11           11.000000         0.788740390       737.968056553       -20.249835578       -19.459213890         0.032082000
        12           12.000000         0.864285687       808.650395426       -20.325450688       -19.458760844         0.030505001
        13           13.000000         0.947451017       886.462255656       -20.410674449       -19.458535332         0.029518000
        14           14.000000         1.043925056       976.726124601       -20.508600983       -19.458860928         0.351196000
        15           15.000000         1.151117418      1077.018362759       -20.615217441       -19.459350439         0.033030000
        16           16.000000         1.258890010      1177.853480311       -20.722775714       -19.459623125         0.036392000
        17           17.000000         1.359643633      1272.121450444       -20.826126103       -19.459493704         0.033040000
        18           18.000000         1.458813598      1364.907704077       -20.927016521       -19.459042792         0.033605000
        19           19.000000         1.562174399      1461.615024867       -21.032571112       -19.458672545         0.040542000
        20           20.000000         1.677726855      1569.729205400       -21.148811405       -19.458708176         0.033734000
        21           21.000000         1.803592395      1687.492602671       -21.274923148       -19.459289019         0.041130000
        22           22.000000         1.929231176      1805.043838298       -21.402760488       -19.459993966         0.027312000
        23           23.000000         2.047561557      1915.757125379       -21.522391742       -19.460418419         0.027363000
        24           24.000000         2.152903288      2014.317859773       -21.628021351       -19.460289115         0.027988999
        25           25.000000         2.247010432      2102.367193924       -21.722127516       -19.459998521         0.026247000
        26           26.000000         2.331062237      2181.008465941       -21.810967206       -19.459783434         0.029738000
        27           27.000000         2.419209046      2263.481139751       -21.898529097       -19.459998059         0.027667000
        28           28.000000         2.501607885      2340.575849030       -21.981517866       -19.460609495         0.025852000
        29           29.000000         2.572386383      2406.798235385       -22.051101381       -19.461238476         0.031965001
        30           30.000000         2.618852703      2450.273452058       -22.098880285       -19.461457145         0.032730999
        31           31.000000         2.640322310      2470.361030087       -22.123583442       -19.461032343         0.268988000
        32           32.000000         2.646309449      2475.962768431       -22.133235567       -19.460321954         0.029565000
        33           33.000000         2.658089106      2486.984152502       -22.140497425       -19.459629885         0.030376000
        34           34.000000         2.671176702      2499.229281282       -22.156380589       -19.459475988         0.031386999
        35           35.000000         2.698673109      2524.955706307       -22.183939910       -19.459673743         0.030308000
        36           36.000000         2.733278382      2557.333388472       -22.220580260       -19.459975091         0.027810001
        37           37.000000         2.776355472      2597.637545559       -22.263417359       -19.459958240         0.027445000
        38           38.000000         2.827139143      2645.152200085       -22.313960443       -19.459562603         0.027257000
        39           39.000000         2.891451676      2705.324844382       -22.377526866       -19.459326896         0.025208999
        40           40.000000         2.968215569      2777.147337272       -22.457663856       -19.459526659         0.258165000
        41           41.000000         3.060366900      2863.366756895       -22.551604007       -19.460130280         0.038982000
        42           42.000000         3.155337138      2952.223625879       -22.649203435       -19.460819796         0.024269001
        43           43.000000         3.239816750      3031.265165936       -22.739219255       -19.461233205         0.026043000
        44           44.000000         3.315159515      3101.758010821       -22.815966186       -19.460984703         0.028519000
        45           45.000000         3.379710790      3162.154029131       -22.881789743       -19.460414956         0.024096000
        46           46.000000         3.439016326      3217.641983846       -22.943685133       -19.460161144         0.277235000
        47           47.000000         3.500256989      3274.940498534       -23.006219709       -19.460307687         0.029674999
        48           48.000000         3.557845618      3328.822066324       -23.067779086       -19.460845681         0.031031000
        49           49.000000         3.603860288      3371.874706862       -23.120241409       -19.461345715         0.032590000
        50           50.000000         3.634385556      3400.435020037       -23.155410663       -19.461383772         0.030761000
        51           51.000000         3.645220607      3410.572603400       -23.171611734       -19.460992518         0.029602000
        52           52.000000         3.645160076      3410.515969015       -23.174769097       -19.460287674         0.272414001
        53           53.000000         3.640349967      3406.015493446       -23.174602407       -19.460104919         0.033988000
        54           54.000000         3.639645257      3405.356146387       -23.175771462       -19.460161581         0.038850000
        55           55.000000         3.635253575      3401.247163965       -23.176397058       -19.460690010         0.026480000
        56           56.000000         3.626223635      3392.798493488       -23.170355886       -19.461130108         0.031668000
        57           57.000000         3.607435408      3375.219690801       -23.155366434       -19.461020527         0.036407000
        58           58.000000         3.587700463      3356.755112505       -23.136446198       -19.460191201         0.294729000
        59           59.000000         3.570306222      3340.480563846       -23.124775449       -19.459517265         0.028384000
        60           60.000000         3.573854302      3343.800248769       -23.129606715       -19.459332834         0.027163000
        61           61.000000         3.593603191      3362.277873747       -23.152438189       -19.459760820         0.043053000
        62           62.000000         3.625685634      3392.295124094       -23.185944631       -19.460389856         0.028174000
        63           63.000000         3.658510009      3423.006547841       -23.219484048       -19.460646775         0.029307000
        64           64.000000         3.681727208      3444.729223044       -23.247144902       -19.460518737         0.031752000
        65           65.000000         3.700517769      3462.310208934       -23.270586133       -19.459990011         0.262444000
        66           66.000000         3.725142691      3485.349990056       -23.296569080       -19.459745702         0.031726000
        67           67.000000         3.754357607      3512.684300151       -23.327982909       -19.460034138         0.031053000
        68           68.000000         3.778625381      3535.389924112       -23.359362320       -19.460613635         0.031123000
        69           69.000000         3.794655159      3550.387842411       -23.380972789       -19.460954680         0.042588999
        70           70.000000         3.797682248      3553.220073371       -23.387108577       -19.460748458         0.040447000
        71           71.000000         3.790417822      3546.423268125       -23.381340070       -19.460012547         0.422606000
        72           72.000000         3.781701400      3538.267935442       -23.375674770       -19.459400362         0.038043000
        73           73.000000         3.782792231      3539.288547412       -23.381223592       -19.459465815         0.043490000
        74           74.000000         3.795624747      3551.295016362       -23.398253613       -19.460132767         0.048296001
        75           75.000000         3.812367306      3566.959832945       -23.416259680       -19.460858945         0.038315000
        76           76.000000         3.815397198      3569.794687197       -23.423829031       -19.460967385         0.036729000
        77           77.000000         3.807768241      3562.656816503       -23.419066937       -19.460491804         0.345983000
        78           78.000000         3.797060552      3552.638396836       -23.410285140       -19.459866446         0.033915000
        79           79.000000         3.793464706      3549.274020348       -23.408437362       -19.459541559         0.032706001
        80           80.000000         3.804030099      3559.159304431       -23.417642587       -19.460063446         0.039933000
        81           81.000000         3.809593835      3564.364894900       -23.430495585       -19.460836352         0.056044000
        82           82.000000         3.809681016      3564.446463343       -23.434587537       -19.461401888         0.037831000
        83           83.000000         3.795693055      3551.358927701       -23.422293945       -19.461205062         0.606892000
        84           84.000000         3.769251078      3526.619057616       -23.397735985       -19.460327909         0.050741999
        85           85.000000         3.742218441      3501.326549503       -23.373712854       -19.459685448         0.119609000
        86           86.000000         3.726875560      3486.971311378       -23.361252709       -19.459747398         0.085222000
        87           87.000000         3.724064291      3484.341008612       -23.360637674       -19.460338531         0.036168000
        88           88.000000         3.722795876      3483.154242434       -23.361781446       -19.461336838         0.023988000
        89           89.000000         3.709877571      3471.067507444       -23.351745195       -19.461620588         0.027950000
        90           90.000000         3.683133513      3446.045002494       -23.327005813       -19.461016941         0.037121000
        91           91.000000         3.655451458      3420.144879833       -23.296928075       -19.459945167         0.352203000
        92           92.000000         3.636042057      3401.984889464       -23.276799769       -19.459641006         0.040670000
        93           93.000000         3.629579743      3395.938564442       -23.272749387       -19.460132853         0.044629999
        94           94.000000         3.627710533      3394.189678037       -23.275837693       -19.461475372         0.037290000
        95           95.000000         3.619640953      3386.639548139       -23.268081810       -19.462226003         0.041956000
        96           96.000000         3.588442175      3357.449079729       -23.239533528       -19.461929697         0.369015000
        97           97.000000         3.548499038      3320.077138452       -23.196263653       -19.460955209         0.041389001
        98           98.000000         3.505672374      3280.007287959       -23.155300727       -19.460037820         0.047847000
        99           99.000000         3.480736686      3256.676745491       -23.131302743       -19.460021971         0.037982999
       100          100.000000         3.470913304      3247.485707901       -23.125464938       -19.460745116         0.030725000
