     227
 i =        0, time =        0.000, E =       -19.7789410787
 Cd        -8.6216924880        0.4810107428        3.4775887729
 Cd        -5.8723589632       -0.2566559957        7.1151373767
 Cd        -8.4076147924       -2.1531404527        0.3867588804
 Cd        -6.8957642261       -3.2896665849        3.9600318291
 Cd        -3.6930098048       -3.6992689615        7.3819491709
 Cd        -6.4429261463       -6.2347087238        0.4622469067
 Cd        -4.3123952394       -6.8285875372        3.9039095072
 Cd        -6.1141073353        3.8626235599        2.9066844924
 Cd        -3.6048790416        2.8797284733        6.5917986711
 Cd        -6.7531255596        1.1841266196       -0.3182182747
 Cd        -4.0437606329        0.0729837467        3.0511954168
 Cd        -1.7753257667       -0.3121054857        6.8316599018
 Cd        -6.3661028473       -1.4630135273       -3.4383357626
 Cd        -4.3602814436       -3.1214810613       -0.1759283953
 Cd        -2.2424276819       -3.6242998489        3.6335413818
 Cd         0.1757294635       -3.9625201566        7.0364714760
 Cd        -4.2692200317       -5.9860442556       -3.0005266361
 Cd        -2.2482225396       -6.7972628816        0.6786391664
 Cd         0.0669003827       -7.3030327295        3.8545421700
 Cd        -4.0792754193        7.4105475565        2.4175118797
 Cd        -1.6116442377        6.4880648240        6.2478272306
 Cd        -4.3308002626        4.8127262164       -0.6762739309
 Cd        -1.8326132452        3.6694977750        3.1598212265
 Cd         0.4939817277        3.1637060931        6.7202662426
 Cd        -4.5980154021        1.9988297698       -4.0880170010
 Cd        -2.1651194586        1.0165564496       -0.4536921834
 Cd         0.1376109507       -0.0659106884        3.1336818174
 Cd         2.6419074521       -0.6636939286        6.8958319365
 Cd        -4.1515129292       -0.5348426091       -6.9620217917
 Cd        -2.2012490343       -1.8491984656       -3.4894107829
 Cd         0.0359311218       -2.8494155653       -0.0264680683
 Cd         2.4407298775       -3.8224684908        3.5289587884
 Cd         4.5907434619       -4.2169180472        6.5928471603
 Cd        -2.6321953796       -4.5685798778       -6.0773989300
 Cd        -0.3638438279       -6.1221236347       -3.0620735359
 Cd         1.9882729153       -6.8506852632       -0.0376753302
 Cd         4.3604701588       -7.5063202656        3.0981086138
 Cd        -2.4313710890        8.2839908015       -1.2010761441
 Cd         0.1210964618        6.7915494583        2.0748938605
 Cd         2.2602783261        6.3879934074        5.9824457591
 Cd        -2.2743307721        5.5403016700       -4.1096429978
 Cd         0.1552258413        4.6164378819       -0.9814446932
 Cd         2.6173372932        3.7540356816        2.4616712460
 Cd         4.3934694910        2.5024270436        5.6448470259
 Cd        -2.3839877703        3.0961459608       -7.5397423510
 Cd        -0.1308699873        1.7716472388       -4.3458913396
 Cd         2.1522040622        0.8595996928       -0.9600505658
 Cd         4.3027041934       -0.4425155449        2.5248589789
 Cd         6.4943132815       -0.6514444341        6.0110723312
 Cd         0.4032906214       -0.5920449882       -7.0625722312
 Cd         2.1504065746       -1.8410095193       -3.9631978812
 Cd         4.1282053355       -2.9764966895       -0.5499119195
 Cd         6.9189885741       -3.8001688729        2.8840486736
 Cd         1.0693858855       -4.7693596381       -6.7909688629
 Cd         3.6529341800       -5.7620820022       -3.6150795142
 Cd         5.7341856059       -6.5625995016       -0.3323817960
 Cd         2.4532379782        8.1225833618       -1.1556872380
 Cd         4.4025673150        7.2904811152        1.7928276254
 Cd         2.3800547108        5.2453457502       -4.8107637235
 Cd         4.8184663347        4.7191125514       -1.4277792117
 Cd         6.7589411702        3.8390778732        2.0295448973
 Cd         2.6210634084        2.7844913241       -7.7035228004
 Cd         4.8495943395        1.7843685348       -4.5225056138
 Cd         6.7261500983        1.0662237140       -0.9642295531
 Cd         8.8881450478        0.4141445330        2.4369093904
 Cd         4.3615782352       -0.9213178924       -7.7328888960
 Cd         6.7438649008       -1.9767569930       -4.2031112584
 Cd         8.5272445020       -2.6218905711       -0.2551455218
 Se        -9.0557725106        0.2424574140        0.9180313808
 Se        -6.3745872764       -0.6570220647        4.4225742627
 Se        -3.9358548519       -1.3506397678        8.2925868769
 Se        -6.5830028390       -3.7408669090        1.3890860046
 Se        -4.5802302415       -4.2716541219        4.8585926421
 Se        -4.6110671623       -7.7792240778        1.5343213278
 Se        -6.6407812351        3.9866809498        0.4586064126
 Se        -4.0705866514        2.6241591830        3.9150270775
 Se        -1.6315747320        2.0143859544        7.9219454430
 Se        -6.7106235468        0.9827493806       -3.1628202938
 Se        -4.4077684895       -0.2106461950        0.3970531668
 Se        -2.0534879979       -1.1190641497        4.2604482105
 Se         0.4069246601       -1.5676855049        8.0617057342
 Se        -4.4126107232       -3.1307459794       -2.8028288282
 Se        -2.2371864822       -4.0884616040        0.9473336128
 Se         0.1541797359       -4.8148952714        4.4843326207
 Se        -2.4147106009       -7.4199706225       -2.0529393442
 Se        -0.0662571417       -7.8800811154        1.3078284855
 Se        -4.5519687636        7.5920037884       -0.0122560791
 Se        -1.8482840651        6.3647212661        3.5390459072
 Se         0.4006735392        5.8241498358        7.5878867146
 Se        -4.4655945585        4.5529209660       -3.3484418515
 Se        -2.0798083538        3.7153034916        0.3451575142
 Se         0.4973892782        2.6967113851        3.7286137790
 Se         2.7724753484        1.9958260876        7.6298945277
 Se        -4.6126224962        2.0736182894       -6.9031574659
 Se        -2.2770211290        0.8531533747       -3.1284312065
 Se         0.0138865169       -0.1636477002        0.3858468104
 Se         2.3115473387       -1.3198431962        4.0017354986
 Se         4.8624545925       -1.8855864388        7.7371297607
 Se        -2.0700877949       -1.9675257511       -6.4603372509
 Se        -0.0447057629       -3.1582708631       -2.8090856920
 Se         2.2343306950       -4.2299664240        0.7817840723
 Se         4.8342987615       -4.9516929708        4.0974643468
 Se        -0.7556003326       -6.2829108386       -5.8406699955
 Se         1.9243057511       -7.4784768035       -2.6074198353
 Se         4.2543989663       -8.3809591814        0.7363809319
 Se         0.0386925703        7.3677075300       -0.4939635450
 Se         2.3791568525        6.5289221229        3.1400383851
 Se         0.0465974103        4.4270318221       -3.5936563407
 Se         2.5167269427        3.6273521599       -0.0581806204
 Se         4.7705604635        2.4670139639        3.1233546104
 Se         0.0435933033        1.9323944164       -6.9695738842
 Se         2.2733127965        0.7623703678       -3.6584263160
 Se         4.3816175435       -0.2841549253       -0.0177063702
 Se         6.9670500347       -1.1290204494        3.5565582379
 Se         2.2410869402       -2.2702007814       -6.6798205275
 Se         4.3723294721       -3.1971869108       -3.2130677403
 Se         6.4331938555       -4.1098532443        0.4136420186
 Se         4.8503033307        7.5509093293       -0.7463548497
 Se         4.8776288797        4.5477652435       -4.0091414448
 Se         7.0830986217        3.5950723552       -0.6434567968
 Se         4.7810064642        1.5273410534       -7.5566303287
 Se         6.9188050062        0.6130038217       -3.7081238627
 Se         9.1066871843       -0.0609359671       -0.0919647969
  C         6.9955771113       -6.9586634775       -2.8583426301
  H         7.7780160969       -7.1271873265       -3.6573399650
  O         5.8389952916       -6.4652991204       -3.1445809228
  O         7.2920676004       -7.2683568805       -1.6893132711
  C         3.3939431960       -6.2668607509       -6.9513074648
  H         4.3245440932       -6.8689211647       -7.0591687882
  O         3.0202466073       -5.7860511295       -5.7843136273
  O         2.6220129789       -6.1746538788       -7.9242101403
  C         6.3116555909       -2.9071154185       -7.4921130606
  H         7.0978863851       -3.7212906458       -7.4285512081
  O         6.0096715894       -2.3219711192       -6.3505932827
  O         5.9403243477       -2.4750431756       -8.6116316973
  C         8.9837561036       -3.3697375837       -3.4349055328
  H         9.9249943929       -3.8864043165       -3.1840078659
  O         8.5659407989       -3.4209184445       -4.6048832464
  O         8.2714489672       -2.6971151254       -2.5207012617
  C         9.7902109758       -4.6282247391        2.1768529346
  H        10.6284324694       -5.3337138149        2.3552924638
  O         9.7484501532       -4.1824896055        0.9942458601
  O         9.0219926648       -4.5705851174        3.1873629795
  C        -2.8252708508       -8.8894178348        5.3653894160
  H        -2.3915771747       -9.8892286280        5.4446685031
  O        -1.9808601030       -7.9304545651        5.0436955975
  O        -4.0908415257       -8.7280019527        5.4030844137
  C         3.0047406823       -8.6887063298        5.2919739424
  H         2.6853413808       -9.0312323512        6.2714246943
  O         1.9985977812       -8.3553887881        4.5599054594
  O         4.2197147413       -8.6069092298        4.9235206312
  C         2.8732291572       -5.7090624943        8.2322507888
  H         2.4095730423       -6.3582442170        8.9295273658
  O         2.2236878889       -4.8031284854        7.6183804854
  O         4.1525405945       -5.8988692439        8.1468427445
  C        -2.5324052264       -5.9090323801        8.5168983878
  H        -2.0058427467       -6.7599986745        9.0204193621
  O        -1.9189018681       -5.2527647032        7.5983339134
  O        -3.6521974131       -5.4981014961        8.8936623702
  C        -6.8661340661        2.3082426882        7.3884767521
  H        -7.2433530482        3.2983326111        7.3747512577
  O        -5.6189307919        2.1553364867        7.5292857639
  O        -7.6694328727        1.3672322100        7.2032576312
  C        -4.1128935570        6.2776012356        7.2258109093
  H        -5.2184092536        6.2949225170        7.4003980339
  O        -3.5215502414        5.2331222329        6.7794929280
  O        -3.5956064510        7.4679880815        7.3184340370
  C        -6.2584500423        7.1467273309        4.0778865765
  H        -7.2018864753        7.1620259062        4.6862261037
  O        -5.8042352338        6.0508881806        3.6277903665
  O        -5.6141473350        8.2227071687        3.8530055117
  C        -9.2670155991        2.9624473135        4.4549609073
  H        -9.7760873251        3.8307467380        4.7753730710
  O        -8.0580447847        3.0137717908        4.1153681461
  O       -10.0869615960        1.9755230626        4.3964141791
  C        -9.5997958208       -3.5202239981        4.2555074891
  H       -10.6284324694       -3.6062117458        4.7363993397
  O        -9.3836198173       -2.7271085544        3.2939504316
  O        -8.6749593009       -4.3055307223        4.7674147240
  C        -5.4063829718       -6.0836320759       -6.1576393485
  H        -6.0390997038       -6.5934387315       -6.8768176703
  O        -5.3157147411       -6.5042627408       -4.9638375967
  O        -4.7997118332       -5.0931497246       -6.6842330004
  C        -7.4812021438       -7.2683192216       -1.8337008205
  H        -7.8430239833       -7.7214409635       -2.7403108931
  O        -6.3847231004       -6.5596142310       -1.8855223803
  O        -8.0870004405       -7.4369608581       -0.7449951352
  C        -9.2637717352       -3.4248031045       -2.1287629167
  H        -9.5435102925       -4.0726156799       -2.9624854104
  O        -8.1685743898       -2.7562864935       -2.2769679175
  O        -9.8293124780       -3.4993302663       -1.0042472880
  C        -6.7198117275       -1.5155721631       -7.0057360974
  H        -7.7266400310       -1.9701098143       -7.1795729881
  O        -6.3208037730       -1.2812141421       -5.7891801227
  O        -6.0546670581       -1.2647410752       -8.0219575549
  C        -1.9610306020        5.6962737072       -7.4797868569
  H        -1.8068881661        6.7616764611       -7.4798700689
  O        -2.4613788677        5.1953402046       -6.4147373301
  O        -1.7592038190        5.0404242691       -8.5376948407
  C        -1.7153677193        9.0065729983       -3.7807068554
  H        -1.3518565997        9.2891789052       -4.8285272378
  O        -1.7735635219        7.7204009534       -3.5311974415
  O        -1.9589811591        9.8892286280       -2.9296575010
  C         2.5176986766        8.6527359013       -4.1276241396
  H         2.7356319561        9.0838176512       -5.0545617483
  O         2.0941304229        7.4607563111       -4.0382054964
  O         2.6632020791        9.4136986823       -3.1567247192
  C         1.7405814703        5.3615037054       -8.2026998584
  H         1.4592813282        6.4433815072       -8.3446733349
  O         2.2712544771        5.0744229803       -7.0359036782
  O         1.5374971892        4.4786315137       -9.0204193621
  C         9.4791869119        2.6134878200        3.9079418032
  H         9.6264681644        3.4611325178        4.5867541287
  O         8.5294682966        2.7206869475        3.0468687327
  O        10.1884170796        1.5361363159        4.0354546634
  C         6.6320899766        7.0427804887        3.3240585285
  H         7.5183451153        7.1103565644        4.0025867163
  O         6.4921259472        6.1579139584        2.4473334656
  O         5.8014508194        7.8970951585        3.5804466065
  C         4.7468288793        5.8510846562        6.9391041765
  H         5.6837062732        5.7110173508        7.4566454645
  O         4.3315486404        4.9881730889        6.0840680113
  O         4.1390624477        6.9214380767        7.1338855679
  C         7.5642974957        1.7429307679        7.1823006621
  H         8.1116275708        2.6102062210        7.6466333920
  O         6.7423080014        2.0330978891        6.2208765696
  O         7.8434776238        0.5800715711        7.5931108165
     227
 i =        1, time =        1.000, E =       -19.7921494706
 Cd        -8.6194343785        0.4797042504        3.4772297801
 Cd        -5.8716338016       -0.2571164241        7.1144489005
 Cd        -8.4083316996       -2.1541988186        0.3851843360
 Cd        -6.8928566399       -3.2918486366        3.9611475805
 Cd        -3.6901821085       -3.7005063838        7.3824782038
 Cd        -6.4420776523       -6.2358391705        0.4642010080
 Cd        -4.3123676466       -6.8297203594        3.9053051503
 Cd        -6.1164874688        3.8610046527        2.9056529362
 Cd        -3.6067314315        2.8813023263        6.5904912362
 Cd        -6.7535125083        1.1872658297       -0.3192429477
 Cd        -4.0445011598        0.0755238226        3.0502173248
 Cd        -1.7741935655       -0.3125959969        6.8336778989
 Cd        -6.3662043125       -1.4624969355       -3.4402500793
 Cd        -4.3614258047       -3.1218054400       -0.1745534042
 Cd        -2.2426392372       -3.6216301052        3.6336586062
 Cd         0.1787256623       -3.9616776538        7.0370365845
 Cd        -4.2695031316       -5.9882964535       -2.9989386942
 Cd        -2.2487493978       -6.7967032121        0.6791457245
 Cd         0.0677973976       -7.3031191358        3.8543147306
 Cd        -4.0803961726        7.4119916077        2.4183684120
 Cd        -1.6108970587        6.4879867959        6.2510363896
 Cd        -4.3326092645        4.8128678701       -0.6769787591
 Cd        -1.8304364747        3.6696526740        3.1589635218
 Cd         0.4898149925        3.1633591805        6.7206204052
 Cd        -4.5996864874        2.0001566045       -4.0890783881
 Cd        -2.1629514649        1.0181589244       -0.4517769092
 Cd         0.1384375633       -0.0681618596        3.1344633090
 Cd         2.6424610085       -0.6635620959        6.8959974921
 Cd        -4.1542131244       -0.5351778775       -6.9612064251
 Cd        -2.2032249683       -1.8491119643       -3.4900845907
 Cd         0.0358040330       -2.8475515925       -0.0251086679
 Cd         2.4397399659       -3.8216258567        3.5305008798
 Cd         4.5938397883       -4.2152863401        6.5947921892
 Cd        -2.6317994094       -4.5700322985       -6.0786208986
 Cd        -0.3609621849       -6.1211430836       -3.0631854285
 Cd         1.9864271389       -6.8524388130       -0.0374661754
 Cd         4.3578788745       -7.5051448078        3.0975192634
 Cd        -2.4320403306        8.2868255888       -1.2004629854
 Cd         0.1211453311        6.7912288745        2.0747839813
 Cd         2.2582303009        6.3879926058        5.9827135407
 Cd        -2.2740410373        5.5406638377       -4.1122275212
 Cd         0.1544556825        4.6149329478       -0.9823715262
 Cd         2.6165563411        3.7534058175        2.4610766686
 Cd         4.3940245136        2.5015994300        5.6447857463
 Cd        -2.3864716762        3.0938480660       -7.5399667650
 Cd        -0.1312665376        1.7709771319       -4.3474732969
 Cd         2.1532228450        0.8600541083       -0.9632321570
 Cd         4.3035505431       -0.4402423384        2.5248486491
 Cd         6.4921240723       -0.6517222437        6.0105930602
 Cd         0.4042386050       -0.5927935471       -7.0622147243
 Cd         2.1513571953       -1.8411433098       -3.9633911827
 Cd         4.1300561808       -2.9780515762       -0.5482578165
 Cd         6.9199452694       -3.7970200250        2.8855775155
 Cd         1.0696591857       -4.7692812579       -6.7907404060
 Cd         3.6507220487       -5.7625933709       -3.6178134332
 Cd         5.7330809372       -6.5640984343       -0.3328660608
 Cd         2.4551178285        8.1224028586       -1.1567233301
 Cd         4.4054800698        7.2898562734        1.7948934741
 Cd         2.3804165307        5.2453245695       -4.8088130418
 Cd         4.8190383941        4.7185244360       -1.4284261041
 Cd         6.7583474343        3.8402174994        2.0311963175
 Cd         2.6217688828        2.7830289952       -7.7034557023
 Cd         4.8493891372        1.7847115535       -4.5231902340
 Cd         6.7278080343        1.0650111095       -0.9631452203
 Cd         8.8868324744        0.4156457083        2.4348610899
 Cd         4.3619032044       -0.9227141229       -7.7309786562
 Cd         6.7428808029       -1.9756984207       -4.2013337745
 Cd         8.5292251290       -2.6208637325       -0.2528494621
 Se        -9.0547136089        0.2428878282        0.9183063699
 Se        -6.3727547647       -0.6564859887        4.4182966756
 Se        -3.9345276236       -1.3489648407        8.2964968664
 Se        -6.5830927112       -3.7425247456        1.3880186244
 Se        -4.5790041557       -4.2749010454        4.8597485330
 Se        -4.6122196763       -7.7765330444        1.5328537996
 Se        -6.6422187902        3.9854932377        0.4576721139
 Se        -4.0718917743        2.6208428704        3.9142852778
 Se        -1.6333002264        2.0117875461        7.9250425218
 Se        -6.7116690650        0.9828863226       -3.1653990238
 Se        -4.4070185155       -0.2111771792        0.3949183335
 Se        -2.0530669360       -1.1152910636        4.2593397066
 Se         0.4060020002       -1.5661940153        8.0649980651
 Se        -4.4160249230       -3.1299847358       -2.8046513341
 Se        -2.2373976781       -4.0915321237        0.9472000661
 Se         0.1530357500       -4.8127159018        4.4857937146
 Se        -2.4165586335       -7.4205449761       -2.0539530960
 Se        -0.0669199052       -7.8790973047        1.3095808699
 Se        -4.5520865953        7.5948108384       -0.0126230851
 Se        -1.8467723869        6.3632825533        3.5400927720
 Se         0.4037061682        5.8261318268        7.5858342594
 Se        -4.4659964869        4.5539516991       -3.3489131845
 Se        -2.0809410518        3.7151853059        0.3431433181
 Se         0.4982084359        2.6969521118        3.7286787052
 Se         2.7717791437        1.9958563724        7.6261157202
 Se        -4.6131390264        2.0747191710       -6.9048760787
 Se        -2.2788470130        0.8534752361       -3.1260811322
 Se         0.0145769319       -0.1632362771        0.3854082398
 Se         2.3129784020       -1.3188493669        3.9989862950
 Se         4.8631415703       -1.8843013382        7.7353314442
 Se        -2.0701798044       -1.9664009851       -6.4603325518
 Se        -0.0447037247       -3.1598987073       -2.8087438205
 Se         2.2322809022       -4.2313984838        0.7809073520
 Se         4.8361970197       -4.9530797944        4.0967282774
 Se        -0.7551461232       -6.2847701561       -5.8413687193
 Se         1.9249968102       -7.4789506551       -2.6076188180
 Se         4.2593589919       -8.3791394371        0.7364144200
 Se         0.0356411477        7.3685770221       -0.4912932666
 Se         2.3809187962        6.5251748344        3.1424886697
 Se         0.0437361464        4.4287847616       -3.5939698847
 Se         2.5163271904        3.6274113071       -0.0569109658
 Se         4.7726798840        2.4661512861        3.1253382495
 Se         0.0455150608        1.9299293510       -6.9704970316
 Se         2.2758042066        0.7648232408       -3.6569884973
 Se         4.3766025575       -0.2853793900       -0.0178197657
 Se         6.9676560596       -1.1294597810        3.5582163947
 Se         2.2369637027       -2.2681663555       -6.6837468878
 Se         4.3736786789       -3.1974687447       -3.2156097893
 Se         6.4331297872       -4.1116656980        0.4129432903
 Se         4.8515176178        7.5523665557       -0.7458833985
 Se         4.8773923975        4.5489356548       -4.0122398512
 Se         7.0855336967        3.5934630021       -0.6428285320
 Se         4.7816692895        1.5264301846       -7.5554992448
 Se         6.9185020406        0.6111935159       -3.7073317875
 Se         9.1068268065       -0.0627303984       -0.0923100274
  C         6.9966685959       -6.9497489698       -2.8612786466
  H         7.7649322095       -7.1224747738       -3.6684216540
  O         5.8436076338       -6.4670088479       -3.1398696314
  O         7.2880938597       -7.2738563582       -1.6933165014
  C         3.3951122626       -6.2672569860       -6.9491355876
  H         4.3444066225       -6.8936096686       -7.0753272229
  O         3.0185942347       -5.7905767469       -5.7816254323
  O         2.6174640811       -6.1686059755       -7.9237041157
  C         6.3106232565       -2.9078874310       -7.4909615898
  H         7.1299137504       -3.7048862282       -7.4466889051
  O         6.0083090932       -2.3179537991       -6.3471538329
  O         5.9390569251       -2.4739964637       -8.6122206944
  C         8.9773758967       -3.3709097557       -3.4296214841
  H         9.9250180562       -3.8774829974       -3.1826003730
  O         8.5679214065       -3.4146285078       -4.6044228480
  O         8.2713584830       -2.6965448690       -2.5198259320
  C         9.7980111651       -4.6251756387        2.1809705279
  H        10.6408655401       -5.3318691344        2.3887999993
  O         9.7466707918       -4.1802163676        0.9925239833
  O         9.0280800083       -4.5678930664        3.1869245225
  C        -2.8217014550       -8.8883676642        5.3598695176
  H        -2.4154187803       -9.9024293192        5.4343946394
  O        -1.9846711344       -7.9303290298        5.0420300215
  O        -4.0903996306       -8.7270584377        5.4041513162
  C         2.9968986318       -8.6915491069        5.2874452587
  H         2.6967725338       -9.0398269484        6.2934215078
  O         1.9992096364       -8.3574873479        4.5591670630
  O         4.2233112954       -8.6001873184        4.9150272717
  C         2.8792661650       -5.7053416319        8.2323677876
  H         2.3955873073       -6.3773024893        8.9303283437
  O         2.2188412782       -4.8085364437        7.6159495788
  O         4.1497996665       -5.9031391089        8.1532169046
  C        -2.5346912982       -5.9173627039        8.5219242885
  H        -2.0052498086       -6.7390725628        9.0096019785
  O        -1.9214300610       -5.2578929218        7.5980793131
  O        -3.6521945495       -5.5080726632        8.8924114149
  C        -6.8630614880        2.3027273886        7.3891098611
  H        -7.2086193538        3.3071349018        7.3885257928
  O        -5.6209708016        2.1588822907        7.5333718714
  O        -7.6691650602        1.3700280577        7.1998128926
  C        -4.1170325907        6.2827613394        7.2281222119
  H        -5.2418933127        6.2896177269        7.3832000201
  O        -3.5263161362        5.2288058414        6.7735515936
  O        -3.5907777684        7.4670981288        7.3177992035
  C        -6.2567126250        7.1461784658        4.0781293926
  H        -7.2111390447        7.1649409639        4.6689854642
  O        -5.8087334189        6.0476143751        3.6276184527
  O        -5.6123794990        8.2204247951        3.8484353911
  C        -9.2741400336        2.9617237621        4.4605085820
  H        -9.7855372140        3.8838940690        4.7760086716
  O        -8.0584969197        3.0117376349        4.1190464222
  O       -10.0807283063        1.9790096434        4.3920130998
  C        -9.6032299972       -3.5281925562        4.2551375195
  H       -10.5971720209       -3.6001750875        4.7566807035
  O        -9.3828192848       -2.7226845821        3.2941997472
  O        -8.6781506039       -4.3014221983        4.7627709551
  C        -5.4081482214       -6.0791839948       -6.1561413198
  H        -6.0546960796       -6.5859836395       -6.8890942905
  O        -5.3106866067       -6.5038131838       -4.9648805373
  O        -4.7979998639       -5.0925735800       -6.6850400296
  C        -7.4874698278       -7.2704897908       -1.8348116236
  H        -7.8388434959       -7.7173330376       -2.7530342297
  O        -6.3884202640       -6.5547278379       -1.8840300865
  O        -8.0713419388       -7.4406492431       -0.7456347390
  C        -9.2562078719       -3.4270315926       -2.1219593437
  H        -9.5270787848       -4.0663584857       -2.9594189931
  O        -8.1694835908       -2.7552107497       -2.2725253321
  O        -9.8238605957       -3.4937575330       -1.0090354668
  C        -6.7206862376       -1.5101952412       -7.0045485207
  H        -7.7450574417       -1.9674181007       -7.1698505571
  O        -6.3194287366       -1.2780466387       -5.7986893471
  O        -6.0629169072       -1.2633616949       -8.0152131404
  C        -1.9628448675        5.6954869960       -7.4852708659
  H        -1.7770888886        6.7764005651       -7.4923242406
  O        -2.4610585380        5.1863593090       -6.4084295986
  O        -1.7564727229        5.0400082382       -8.5280136382
  C        -1.7168374091        9.0074525868       -3.7839293842
  H        -1.3493405476        9.2660238074       -4.8465614694
  O        -1.7701359625        7.7190829310       -3.5243277181
  O        -1.9637774022        9.8892100867       -2.9405467092
  C         2.5061859142        8.6538409661       -4.1272983452
  H         2.7131102182        9.0638249498       -5.0476060874
  O         2.0944536836        7.4528450076       -4.0305528331
  O         2.6626739837        9.4108546736       -3.1549247612
  C         1.7410931291        5.3672464661       -8.1968151104
  H         1.4358383610        6.4416008070       -8.3632925476
  O         2.2781440489        5.0762115936       -7.0403101559
  O         1.5313788041        4.4830308652       -9.0172269822
  C         9.4767991529        2.6096208231        3.9000312745
  H         9.6131090334        3.4671477718        4.5843902861
  O         8.5276479054        2.7171668553        3.0489509022
  O        10.1882191400        1.5399709142        4.0328149576
  C         6.6326340944        7.0382391862        3.3282385982
  H         7.5082674956        7.1289998248        4.0070788575
  O         6.4941105200        6.1601347686        2.4464154115
  O         5.7951536517        7.9027630197        3.5809823171
  C         4.7447956091        5.8524533601        6.9353354390
  H         5.7085862008        5.7040540943        7.4370666698
  O         4.3282335295        4.9883392085        6.0812904095
  O         4.1452943530        6.9222075276        7.1368530240
  C         7.5603274440        1.7452959279        7.1878073189
  H         8.1158840311        2.6116602203        7.6593692779
  O         6.7454864054        2.0300257973        6.2242415954
  O         7.8432197199        0.5819879554        7.5891975684
     227
 i =        2, time =        2.000, E =       -19.8159034617
 Cd        -8.6173653233        0.4785656387        3.4770067739
 Cd        -5.8711560221       -0.2573414587        7.1138593386
 Cd        -8.4093302254       -2.1554312969        0.3834719464
 Cd        -6.8901950438       -3.2940959345        3.9623449116