 DBCSR| Multiplication driver                                               BLAS
 DBCSR| Multrec recursion limit                                              512
 DBCSR| Multiplication stack size                                           1000
 DBCSR| Maximum elements for images                                    UNLIMITED
 DBCSR| Multiplicative factor virtual images                                   1
 DBCSR| Multiplication size stacks                                             3


  **** **** ******  **  PROGRAM STARTED AT               2020-04-23 18:02:59.487
 ***** ** ***  *** **   PROGRAM STARTED ON                     bass-macbook.home
 **    ****   ******    PROGRAM STARTED BY                              bvanbeek
 ***** **    ** ** **   PROGRAM PROCESS ID                                 96247
  **** **  *******  **  PROGRAM STARTED IN /Users/bvanbeek/Documents/GitHub/auto
                                           -FOX/FOX/examples/private/MM_MD_workd
                                           ir/md.027

 CP2K| version string:                                          CP2K version 6.1
 CP2K| source code revision number:                                    svn:18464
 CP2K| cp2kflags: omp no_statm_access accelerate                                
 CP2K| is freely available from                            https://www.cp2k.org/
 CP2K| Program compiled at                         Fri Apr 19 11:24:34 CEST 2019
 CP2K| Program compiled on                                         192.168.1.124
 CP2K| Program compiled for                       Darwin-IntelMacintosh-gfortran
 CP2K| Data directory path            /Users/bvanbeek/Documents/GitHub/cp2k/data
 CP2K| Input file name                                                 md.027.in

 GLOBAL| Force Environment number                                              1
 GLOBAL| Basis set file name                                           BASIS_SET
 GLOBAL| Potential file name                                           POTENTIAL
 GLOBAL| MM Potential file name                                     MM_POTENTIAL
 GLOBAL| Coordinate file name                                      __STD_INPUT__
 GLOBAL| Method name                                                        CP2K
 GLOBAL| Project name                                                       cp2k
 GLOBAL| Preferred FFT library                                             FFTW3
 GLOBAL| Preferred diagonalization lib.                                       SL
 GLOBAL| Run type                                                             MD
 GLOBAL| All-to-all communication in single precision                          F
 GLOBAL| FFTs using library dependent lengths                                  F
 GLOBAL| Global print level                                                  LOW
 GLOBAL| Total number of message passing processes                             1
 GLOBAL| Number of threads for this process                                    4
 GLOBAL| This output is from process                                           0
 GLOBAL| CPU model name : UNKNOWN

 MEMORY| system memory details [Kb]
 MEMORY|                        rank 0           min           max       average
 MEMORY| MemTotal                    0             0             0             0
 MEMORY| MemFree                     0             0             0             0
 MEMORY| Buffers                     0             0             0             0
 MEMORY| Cached                      0             0             0             0
 MEMORY| Slab                        0             0             0             0
 MEMORY| SReclaimable                0             0             0             0
 MEMORY| MemLikelyFree               0             0             0             0

 WARNING : FFT library FFTW3 is not available  Trying FFTSG as a default


                      ************* ******** ***********   
                     ************* **********************  
                     ****     **** ****      ***********   
                     ******** ****  *******     ****       
                     *******  ****   *******   ****        
                     ****     ****       ****  ****        
                     ****     **** **********  ****        
                      ****     **** ********    ****       
                     FRONTIERS IN SIMULATION TECHNOLOGY    
                                                           
                        C.J. Mundy, S. Balasubramanian,    
                     Ken Bagchi, J. Hutter, Ari Seitsonen  
                      IFW Kuo, T. Laino, J. VandeVondele   
                                 Version 1.0               

                                                           

 EWALD|                                                                 not used
     CHM BOND            1 C_1 O_1    525.00000000000000        1.2600000000000000     
     CHM BOND            2 C_1 H_1    238.00000000000000        1.1422000000000001     
     CHM BEND            1 O_1 C_1 O_1    100.00000000000000        128.00000000000000     
     CHM UB            1 O_1 C_1 O_1    70.000000000000000        2.2587000000000002     
     CHM BEND            2 O_1 C_1 H_1    45.000000000000000        116.00000000000000     
     CHM IMPROPERS            1 C_1 O_1 O_1 H_1    67.000000000000000        0.0000000000000000     
     CHM NONBOND            1 H_1   -4.5999999999999999E-002  0.90000000000000002     
     CHM NONBOND            2 C_1   -7.0000000000000007E-002   2.0000000000000000     
     CHM NONBOND            3 O_1  -0.12000000000000000        1.7000000000000000     
     Found UB O_1 C_1 O_1

 FORCEFIELD| WARNING: A non Critical ForceField parameter is missing! CP2K GOES!
 FORCEFIELD| Non critical parameters are:Urey-Bradley,Torsions,Impropers, Opbends and 1-4
 FORCEFIELD| All missing parameters will not contribute to the potential energy!

 FORCEFIELD| Missing Urey-Bradley      ( O_1, C_1, H_1)                         
 FORCEFIELD| Missing Improper          ( C_1, H_1, O_1, O_1)                    
 FORCEFIELD| Missing Out of plane bend ( H_1, O_1, O_1, C_1)                    
 Charge Checking ::C_1CD                                                                              
 Charge Checking ::CDCD                                                                              

 *** WARNING in force_fields_all.F:3322 :: Multiple Charge declarations: ( ***
 *** CD ) overwriting!                                                     ***

 Charge Checking ::O_1CD                                                                              
 Charge Checking ::SECD                                                                              
 Charge Checking ::C_1SE                                                                              
 Charge Checking ::CDSE                                                                              
 Charge Checking ::O_1SE                                                                              
 Charge Checking ::SESE                                                                              

 *** WARNING in force_fields_all.F:3322 :: Multiple Charge declarations: ( ***
 *** SE ) overwriting!                                                     ***

 Charge Checking ::C_1C_1                                                                             

 *** WARNING in force_fields_all.F:3322 :: Multiple Charge declarations: ( ***
 *** C_1 ) overwriting!                                                    ***

 Charge Checking ::CDC_1                                                                             
 Charge Checking ::O_1C_1                                                                             
 Charge Checking ::SEC_1                                                                             
 Charge Checking ::C_1H_1                                                                             
 Charge Checking ::CDH_1                                                                             
 Charge Checking ::O_1H_1                                                                             
 Charge Checking ::SEH_1                                                                             
 Charge Checking ::C_1O_1                                                                             
 Charge Checking ::CDO_1                                                                             
 Charge Checking ::O_1O_1                                                                             

 *** WARNING in force_fields_all.F:3322 :: Multiple Charge declarations: ( ***
 *** O_1 ) overwriting!                                                    ***

 Charge Checking ::SEO_1                                                                             
 CHARGE_INFO| Total Charge of the Classical System:                    12.232810
 Matching kinds for MM_RADIUS :: 'CD' with 'C_1'
 Matching kinds for MM_RADIUS :: 'CD' with 'CD'
 Matching kinds for MM_RADIUS :: 'CD' with 'H_1'
 Matching kinds for MM_RADIUS :: 'CD' with 'O_1'
 Matching kinds for MM_RADIUS :: 'CD' with 'SE'
 Matching kinds for MM_RADIUS :: 'SE' with 'C_1'
 Matching kinds for MM_RADIUS :: 'SE' with 'CD'
 Matching kinds for MM_RADIUS :: 'SE' with 'H_1'
 Matching kinds for MM_RADIUS :: 'SE' with 'O_1'
 Matching kinds for MM_RADIUS :: 'SE' with 'SE'
 Matching kinds for MM_RADIUS :: 'C_1' with 'C_1'
 Matching kinds for MM_RADIUS :: 'C_1' with 'CD'
 Matching kinds for MM_RADIUS :: 'C_1' with 'H_1'
 Matching kinds for MM_RADIUS :: 'C_1' with 'O_1'
 Matching kinds for MM_RADIUS :: 'C_1' with 'SE'
 Matching kinds for MM_RADIUS :: 'H_1' with 'C_1'
 Matching kinds for MM_RADIUS :: 'H_1' with 'CD'
 Matching kinds for MM_RADIUS :: 'H_1' with 'H_1'
 Matching kinds for MM_RADIUS :: 'H_1' with 'O_1'
 Matching kinds for MM_RADIUS :: 'H_1' with 'SE'
 Matching kinds for MM_RADIUS :: 'O_1' with 'C_1'
 Matching kinds for MM_RADIUS :: 'O_1' with 'CD'
 Matching kinds for MM_RADIUS :: 'O_1' with 'H_1'
 Matching kinds for MM_RADIUS :: 'O_1' with 'O_1'
 Matching kinds for MM_RADIUS :: 'O_1' with 'SE'
 Total number of particles with a shell ::            0

 FORCEFIELD| WARNING: A non Critical ForceField parameter is missing! CP2K GOES!
 FORCEFIELD| Non critical parameters are:Urey-Bradley,Torsions,Impropers, Opbends and 1-4
 FORCEFIELD| All missing parameters will not contribute to the potential energy!

 FORCEFIELD| Missing Spline_Bond_Env   (  CD,  CD)                              
                                                                                
                                                                                
                                                                                
                                                                                
                                                                                
                                                                                
                                                                                
                                                                                

 SPLINE_INFO| Generating 15 splines for NONBONDED14 interactions 
              Due to 5 different atomic kinds
  ...1  ...2  ...3  ...4  ...5  ...6  ...7  ...8  ...9  ...10  ...11
  ...12  ...13  ...14  ...15
 SPLINE_INFO| Number of unique splines computed:            7
 SPLINE_INFO| Done
     TESTING CDCD with CDCD
     FOUND CD CD
     TESTING CDCD with SESE
     TESTING CDCD with CDSE
     TESTING CDCD with CDO_1
     TESTING CDCD with SEO_1
     TESTING CDSE with CDCD
     TESTING CDSE with SESE
     TESTING CDSE with CDSE
     FOUND CD SE
     TESTING CDSE with CDO_1
     TESTING CDSE with SEO_1
     TESTING CDC_1 with CDCD
     TESTING CDC_1 with SESE
     TESTING CDC_1 with CDSE
     TESTING CDC_1 with CDO_1
     TESTING CDC_1 with SEO_1
     TESTING CDH_1 with CDCD
     TESTING CDH_1 with SESE
     TESTING CDH_1 with CDSE
     TESTING CDH_1 with CDO_1
     TESTING CDH_1 with SEO_1
     TESTING CDO_1 with CDCD
     TESTING CDO_1 with SESE
     TESTING CDO_1 with CDSE
     TESTING CDO_1 with CDO_1
     FOUND CD O_1
     TESTING CDO_1 with SEO_1
     TESTING SESE with CDCD
     TESTING SESE with SESE
     FOUND SE SE
     TESTING SESE with CDSE
     TESTING SESE with CDO_1
     TESTING SESE with SEO_1
     TESTING SEC_1 with CDCD
     TESTING SEC_1 with SESE
     TESTING SEC_1 with CDSE
     TESTING SEC_1 with CDO_1
     TESTING SEC_1 with SEO_1
     TESTING SEH_1 with CDCD
     TESTING SEH_1 with SESE
     TESTING SEH_1 with CDSE
     TESTING SEH_1 with CDO_1
     TESTING SEH_1 with SEO_1
     TESTING SEO_1 with CDCD
     TESTING SEO_1 with SESE
     TESTING SEO_1 with CDSE
     TESTING SEO_1 with CDO_1
     TESTING SEO_1 with SEO_1
     FOUND SE O_1
     TESTING C_1C_1 with CDCD
     TESTING C_1C_1 with SESE
     TESTING C_1C_1 with CDSE
     TESTING C_1C_1 with CDO_1
     TESTING C_1C_1 with SEO_1
     TESTING C_1H_1 with CDCD
     TESTING C_1H_1 with SESE
     TESTING C_1H_1 with CDSE
     TESTING C_1H_1 with CDO_1
     TESTING C_1H_1 with SEO_1
     TESTING C_1O_1 with CDCD
     TESTING C_1O_1 with SESE
     TESTING C_1O_1 with CDSE
     TESTING C_1O_1 with CDO_1
     TESTING C_1O_1 with SEO_1
     TESTING H_1H_1 with CDCD
     TESTING H_1H_1 with SESE
     TESTING H_1H_1 with CDSE
     TESTING H_1H_1 with CDO_1
     TESTING H_1H_1 with SEO_1
     TESTING H_1O_1 with CDCD
     TESTING H_1O_1 with SESE
     TESTING H_1O_1 with CDSE
     TESTING H_1O_1 with CDO_1
     TESTING H_1O_1 with SEO_1
     TESTING O_1O_1 with CDCD
     TESTING O_1O_1 with SESE
     TESTING O_1O_1 with CDSE
     TESTING O_1O_1 with CDO_1
     TESTING O_1O_1 with SEO_1

 FORCEFIELD| WARNING: A non Critical ForceField parameter is missing! CP2K GOES!
 FORCEFIELD| Non critical parameters are:Urey-Bradley,Torsions,Impropers, Opbends and 1-4
 FORCEFIELD| All missing parameters will not contribute to the potential energy!

 FORCEFIELD| Missing Spline_Non_Bond_En(  CD, C_1)                              
                                                                                
                                                                                
                                                                                

 FORCEFIELD| WARNING: Ignoring missing critical FF parameters! CP2K GOES!
 FORCEFIELD| Critical parameters are: Bonds, Bends and Charges
 FORCEFIELD| All missing parameters will not contribute to the potential energy!

 SPLINE_INFO| Generating 15 splines for NONBONDED interactions 
              Due to 5 different atomic kinds
  ...1  ...2  ...3  ...4  ...5  ...6  ...7  ...8  ...9  ...10  ...11
  ...12  ...13  ...14  ...15
 SPLINE_INFO| Number of unique splines computed:            12
 SPLINE_INFO| Done
       atom            1  Cd charge =    1.2093304082123031     
     Mol Kind MOL1 charge =    1.2093304082123031     
       atom            1  Se charge =  -0.93578300325480401     
     Mol Kind MOL2 charge =  -0.93578300325480401     
       atom            1  C_1 charge =   0.45240000000000002     
       atom            2  H_1 charge =    0.0000000000000000     
       atom            3  O_1 charge =  -0.58261524191196912     
       atom            4  O_1 charge =  -0.58261524191196912     
     Mol Kind MOL3 charge =  -0.71283048382393821     
       atom            1  Cd charge =    1.2093304082123031     
       atom            2  Cd charge =    1.2093304082123031     
       atom            3  Cd charge =    1.2093304082123031     
       atom            4  Cd charge =    1.2093304082123031     
       atom            5  Cd charge =    1.2093304082123031     
       atom            6  Cd charge =    1.2093304082123031     
       atom            7  Cd charge =    1.2093304082123031     
       atom            8  Cd charge =    1.2093304082123031     
       atom            9  Cd charge =    1.2093304082123031     
       atom           10  Cd charge =    1.2093304082123031     
       atom           11  Cd charge =    1.2093304082123031     
       atom           12  Cd charge =    1.2093304082123031     
       atom           13  Cd charge =    1.2093304082123031     
       atom           14  Cd charge =    1.2093304082123031     
       atom           15  Cd charge =    1.2093304082123031     
       atom           16  Cd charge =    1.2093304082123031     
       atom           17  Cd charge =    1.2093304082123031     
       atom           18  Cd charge =    1.2093304082123031     
       atom           19  Cd charge =    1.2093304082123031     
       atom           20  Cd charge =    1.2093304082123031     
       atom           21  Cd charge =    1.2093304082123031     
       atom           22  Cd charge =    1.2093304082123031     
       atom           23  Cd charge =    1.2093304082123031     
       atom           24  Cd charge =    1.2093304082123031     
       atom           25  Cd charge =    1.2093304082123031     
       atom           26  Cd charge =    1.2093304082123031     
       atom           27  Cd charge =    1.2093304082123031     
       atom           28  Cd charge =    1.2093304082123031     
       atom           29  Cd charge =    1.2093304082123031     
       atom           30  Cd charge =    1.2093304082123031     
       atom           31  Cd charge =    1.2093304082123031     
       atom           32  Cd charge =    1.2093304082123031     
       atom           33  Cd charge =    1.2093304082123031     
       atom           34  Cd charge =    1.2093304082123031     
       atom           35  Cd charge =    1.2093304082123031     
       atom           36  Cd charge =    1.2093304082123031     
       atom           37  Cd charge =    1.2093304082123031     
       atom           38  Cd charge =    1.2093304082123031     
       atom           39  Cd charge =    1.2093304082123031     
       atom           40  Cd charge =    1.2093304082123031     
       atom           41  Cd charge =    1.2093304082123031     
       atom           42  Cd charge =    1.2093304082123031     
       atom           43  Cd charge =    1.2093304082123031     
       atom           44  Cd charge =    1.2093304082123031     
       atom           45  Cd charge =    1.2093304082123031     
       atom           46  Cd charge =    1.2093304082123031     
       atom           47  Cd charge =    1.2093304082123031     
       atom           48  Cd charge =    1.2093304082123031     
       atom           49  Cd charge =    1.2093304082123031     
       atom           50  Cd charge =    1.2093304082123031     
       atom           51  Cd charge =    1.2093304082123031     
       atom           52  Cd charge =    1.2093304082123031     
       atom           53  Cd charge =    1.2093304082123031     
       atom           54  Cd charge =    1.2093304082123031     
       atom           55  Cd charge =    1.2093304082123031     
       atom           56  Cd charge =    1.2093304082123031     
       atom           57  Cd charge =    1.2093304082123031     
       atom           58  Cd charge =    1.2093304082123031     
       atom           59  Cd charge =    1.2093304082123031     
       atom           60  Cd charge =    1.2093304082123031     
       atom           61  Cd charge =    1.2093304082123031     
       atom           62  Cd charge =    1.2093304082123031     
       atom           63  Cd charge =    1.2093304082123031     
       atom           64  Cd charge =    1.2093304082123031     
       atom           65  Cd charge =    1.2093304082123031     
       atom           66  Cd charge =    1.2093304082123031     
       atom           67  Cd charge =    1.2093304082123031     
       atom           68  Cd charge =    1.2093304082123031     
       atom           69  Se charge =  -0.93578300325480401     
       atom           70  Se charge =  -0.93578300325480401     
       atom           71  Se charge =  -0.93578300325480401     
       atom           72  Se charge =  -0.93578300325480401     
       atom           73  Se charge =  -0.93578300325480401     
       atom           74  Se charge =  -0.93578300325480401     
       atom           75  Se charge =  -0.93578300325480401     
       atom           76  Se charge =  -0.93578300325480401     
       atom           77  Se charge =  -0.93578300325480401     
       atom           78  Se charge =  -0.93578300325480401     
       atom           79  Se charge =  -0.93578300325480401     
       atom           80  Se charge =  -0.93578300325480401     
       atom           81  Se charge =  -0.93578300325480401     
       atom           82  Se charge =  -0.93578300325480401     
       atom           83  Se charge =  -0.93578300325480401     
       atom           84  Se charge =  -0.93578300325480401     
       atom           85  Se charge =  -0.93578300325480401     
       atom           86  Se charge =  -0.93578300325480401     
       atom           87  Se charge =  -0.93578300325480401     
       atom           88  Se charge =  -0.93578300325480401     
       atom           89  Se charge =  -0.93578300325480401     
       atom           90  Se charge =  -0.93578300325480401     
       atom           91  Se charge =  -0.93578300325480401     
       atom           92  Se charge =  -0.93578300325480401     
       atom           93  Se charge =  -0.93578300325480401     
       atom           94  Se charge =  -0.93578300325480401     
       atom           95  Se charge =  -0.93578300325480401     
       atom           96  Se charge =  -0.93578300325480401     
       atom           97  Se charge =  -0.93578300325480401     
       atom           98  Se charge =  -0.93578300325480401     
       atom           99  Se charge =  -0.93578300325480401     
       atom          100  Se charge =  -0.93578300325480401     
       atom          101  Se charge =  -0.93578300325480401     
       atom          102  Se charge =  -0.93578300325480401     
       atom          103  Se charge =  -0.93578300325480401     
       atom          104  Se charge =  -0.93578300325480401     
       atom          105  Se charge =  -0.93578300325480401     
       atom          106  Se charge =  -0.93578300325480401     
       atom          107  Se charge =  -0.93578300325480401     
       atom          108  Se charge =  -0.93578300325480401     
       atom          109  Se charge =  -0.93578300325480401     
       atom          110  Se charge =  -0.93578300325480401     
       atom          111  Se charge =  -0.93578300325480401     
       atom          112  Se charge =  -0.93578300325480401     
       atom          113  Se charge =  -0.93578300325480401     
       atom          114  Se charge =  -0.93578300325480401     
       atom          115  Se charge =  -0.93578300325480401     
       atom          116  Se charge =  -0.93578300325480401     
       atom          117  Se charge =  -0.93578300325480401     
       atom          118  Se charge =  -0.93578300325480401     
       atom          119  Se charge =  -0.93578300325480401     
       atom          120  Se charge =  -0.93578300325480401     
       atom          121  Se charge =  -0.93578300325480401     
       atom          122  Se charge =  -0.93578300325480401     
       atom          123  Se charge =  -0.93578300325480401     
       atom          124  C_1 charge =   0.45240000000000002     
       atom          125  H_1 charge =    0.0000000000000000     
       atom          126  O_1 charge =  -0.58261524191196912     
       atom          127  O_1 charge =  -0.58261524191196912     
       atom          128  C_1 charge =   0.45240000000000002     
       atom          129  H_1 charge =    0.0000000000000000     
       atom          130  O_1 charge =  -0.58261524191196912     
       atom          131  O_1 charge =  -0.58261524191196912     
       atom          132  C_1 charge =   0.45240000000000002     
       atom          133  H_1 charge =    0.0000000000000000     
       atom          134  O_1 charge =  -0.58261524191196912     
       atom          135  O_1 charge =  -0.58261524191196912     
       atom          136  C_1 charge =   0.45240000000000002     
       atom          137  H_1 charge =    0.0000000000000000     
       atom          138  O_1 charge =  -0.58261524191196912     
       atom          139  O_1 charge =  -0.58261524191196912     
       atom          140  C_1 charge =   0.45240000000000002     
       atom          141  H_1 charge =    0.0000000000000000     
       atom          142  O_1 charge =  -0.58261524191196912     
       atom          143  O_1 charge =  -0.58261524191196912     
       atom          144  C_1 charge =   0.45240000000000002     
       atom          145  H_1 charge =    0.0000000000000000     
       atom          146  O_1 charge =  -0.58261524191196912     
       atom          147  O_1 charge =  -0.58261524191196912     
       atom          148  C_1 charge =   0.45240000000000002     
       atom          149  H_1 charge =    0.0000000000000000     
       atom          150  O_1 charge =  -0.58261524191196912     
       atom          151  O_1 charge =  -0.58261524191196912     
       atom          152  C_1 charge =   0.45240000000000002     
       atom          153  H_1 charge =    0.0000000000000000     
       atom          154  O_1 charge =  -0.58261524191196912     
       atom          155  O_1 charge =  -0.58261524191196912     
       atom          156  C_1 charge =   0.45240000000000002     
       atom          157  H_1 charge =    0.0000000000000000     
       atom          158  O_1 charge =  -0.58261524191196912     
       atom          159  O_1 charge =  -0.58261524191196912     
       atom          160  C_1 charge =   0.45240000000000002     
       atom          161  H_1 charge =    0.0000000000000000     
       atom          162  O_1 charge =  -0.58261524191196912     
       atom          163  O_1 charge =  -0.58261524191196912     
       atom          164  C_1 charge =   0.45240000000000002     
       atom          165  H_1 charge =    0.0000000000000000     
       atom          166  O_1 charge =  -0.58261524191196912     
       atom          167  O_1 charge =  -0.58261524191196912     
       atom          168  C_1 charge =   0.45240000000000002     
       atom          169  H_1 charge =    0.0000000000000000     
       atom          170  O_1 charge =  -0.58261524191196912     
       atom          171  O_1 charge =  -0.58261524191196912     
       atom          172  C_1 charge =   0.45240000000000002     
       atom          173  H_1 charge =    0.0000000000000000     
       atom          174  O_1 charge =  -0.58261524191196912     
       atom          175  O_1 charge =  -0.58261524191196912     
       atom          176  C_1 charge =   0.45240000000000002     
       atom          177  H_1 charge =    0.0000000000000000     
       atom          178  O_1 charge =  -0.58261524191196912     
       atom          179  O_1 charge =  -0.58261524191196912     
       atom          180  C_1 charge =   0.45240000000000002     
       atom          181  H_1 charge =    0.0000000000000000     
       atom          182  O_1 charge =  -0.58261524191196912     
       atom          183  O_1 charge =  -0.58261524191196912     
       atom          184  C_1 charge =   0.45240000000000002     
       atom          185  H_1 charge =    0.0000000000000000     
       atom          186  O_1 charge =  -0.58261524191196912     
       atom          187  O_1 charge =  -0.58261524191196912     
       atom          188  C_1 charge =   0.45240000000000002     
       atom          189  H_1 charge =    0.0000000000000000     
       atom          190  O_1 charge =  -0.58261524191196912     
       atom          191  O_1 charge =  -0.58261524191196912     
       atom          192  C_1 charge =   0.45240000000000002     
       atom          193  H_1 charge =    0.0000000000000000     
       atom          194  O_1 charge =  -0.58261524191196912     
       atom          195  O_1 charge =  -0.58261524191196912     
       atom          196  C_1 charge =   0.45240000000000002     
       atom          197  H_1 charge =    0.0000000000000000     
       atom          198  O_1 charge =  -0.58261524191196912     
       atom          199  O_1 charge =  -0.58261524191196912     
       atom          200  C_1 charge =   0.45240000000000002     
       atom          201  H_1 charge =    0.0000000000000000     
       atom          202  O_1 charge =  -0.58261524191196912     
       atom          203  O_1 charge =  -0.58261524191196912     
       atom          204  C_1 charge =   0.45240000000000002     
       atom          205  H_1 charge =    0.0000000000000000     
       atom          206  O_1 charge =  -0.58261524191196912     
       atom          207  O_1 charge =  -0.58261524191196912     
       atom          208  C_1 charge =   0.45240000000000002     
       atom          209  H_1 charge =    0.0000000000000000     
       atom          210  O_1 charge =  -0.58261524191196912     
       atom          211  O_1 charge =  -0.58261524191196912     
       atom          212  C_1 charge =   0.45240000000000002     
       atom          213  H_1 charge =    0.0000000000000000     
       atom          214  O_1 charge =  -0.58261524191196912     
       atom          215  O_1 charge =  -0.58261524191196912     
       atom          216  C_1 charge =   0.45240000000000002     
       atom          217  H_1 charge =    0.0000000000000000     
       atom          218  O_1 charge =  -0.58261524191196912     
       atom          219  O_1 charge =  -0.58261524191196912     
       atom          220  C_1 charge =   0.45240000000000002     
       atom          221  H_1 charge =    0.0000000000000000     
       atom          222  O_1 charge =  -0.58261524191196912     
       atom          223  O_1 charge =  -0.58261524191196912     
       atom          224  C_1 charge =   0.45240000000000002     
       atom          225  H_1 charge =    0.0000000000000000     
       atom          226  O_1 charge =  -0.58261524191196912     
       atom          227  O_1 charge =  -0.58261524191196912     
    Total system charge =        12.2328100000
    Total system mass   =  23985470.0628633164
     Mol(           3 ) Old BOND Count:            3           2
     1     2
     3     1
     4     1
     Mol(           3 ) Old BEND Count:            3           2
     3     1     4
     3     1     2
     4     1     2
     Mol(           3 ) Old UB Count:            3           2
     3     1     4
     3     1     2
     4     1     2
     Mol(           3 ) New UB Count:            1           1
     3     1     4
     Mol(           3 ) Old IMPROPER Count:            1           1
     Mol(           3 ) New IMPROPER Count:            0           0
     Mol(           3 ) Old OPBEND Count:            1           1
     Mol(           3 ) New OPBEND Count:            0           0

 MD| Molecular Dynamics Protocol 
 MD| Ensemble Type                                                           NVT
 MD| Number of Time Steps                                                    100
 MD| Time Step [fs]                                                         1.00
 MD| Temperature [K]                                                      300.00
 MD| Temperature tolerance [K]                                              0.00
 MD| Print MD information every                                        1 step(s)
 MD| File type     Print frequency[steps]                             File names
 MD| Coordinates            1                                     cp2k-pos-1.xyz
 MD| Velocities             1                                     cp2k-vel-1.xyz
 MD| Energies               1                                        cp2k-1.ener
 MD| Dump                  20                                     cp2k-1.restart

 ROT| Rotational Analysis Info 
 ROT| Principal axes and moments of inertia in atomic units:
 ROT|                                1                 2                 3
 ROT| EIGENVALUES            0.326220554E+10   0.336484857E+10   0.341428896E+10
 ROT|      X                     0.889329186       0.047517002      -0.454791967
 ROT|      Y                     0.005946844       0.993300189       0.115409577
 ROT|      Z                    -0.457228864       0.105341682      -0.883088272
 ROT| Numer of Rotovibrational vectors:     6

 Calculation of degrees of freedom
                                                      Number of atoms:       227
                                 Number of Intramolecular constraints:         0
                                 Number of Intermolecular constraints:         0
                                  Invariants(translation + rotations):         6
                                                   Degrees of freedom:       675


 Restraints Information
                                  Number of Intramolecular restraints:         0
                                  Number of Intermolecular restraints:         0

 THERMOSTAT| Thermostat Info for PARTICLES
 THERMOSTAT| Type of thermostat            Canonical Sampling/Velocity Rescaling
 THERMOSTAT| CSVR time constant [  fs]                                   1250.00
 THERMOSTAT| Initial Kinetic Energy                                     0.000000
 THERMOSTAT| End of Thermostat Info for PARTICLES

 ************************** Velocities initialization **************************
 Initial Temperature                                                    300.00 K
 COM velocity:            0.000000000000      0.000000000000      0.000000000000
 COM position:            0.162577692601     -0.338774148860      0.870870578750
 Angular velocity:       -0.000000097478      0.000000085085      0.000000505351
 *******************************************************************************


 ENERGY| Total FORCE_EVAL ( FIST ) energy (a.u.):            -19.778941078656697


 MD_ENERGIES| Initialization proceeding


 ******************************** GO CP2K GO! **********************************
 INITIAL POTENTIAL ENERGY[hartree]     =                     -0.197789410787E+02
 INITIAL KINETIC ENERGY[hartree]       =                      0.320640053508E+00
 INITIAL TEMPERATURE[K]                =                                 300.000
 INITIAL VOLUME[bohr^3]                =                      0.843541822886E+06
 INITIAL CELL LNTHS[bohr]   =      0.9448631E+02   0.9448631E+02   0.9448631E+02
 INITIAL CELL ANGLS[deg]    =      0.9000000E+02   0.9000000E+02   0.9000000E+02
 ******************************** GO CP2K GO! **********************************

 ENERGY| Total FORCE_EVAL ( FIST ) energy (a.u.):            -19.792149470569072


 *******************************************************************************
 ENSEMBLE TYPE                =                                              NVT
 STEP NUMBER                  =                                                1
 TIME [fs]                    =                                         1.000000
 CONSERVED QUANTITY [hartree] =                              -0.194587326110E+02

                                              INSTANTANEOUS             AVERAGES
 CPU TIME [s]                 =                        0.34                 0.34
 ENERGY DRIFT PER ATOM [K]    =         -0.600369530930E+00   0.000000000000E+00
 POTENTIAL ENERGY[hartree]    =         -0.197921494706E+02  -0.197921494706E+02
 KINETIC ENERGY [hartree]     =          0.333073722209E+00   0.333073722209E+00
 TEMPERATURE [K]              =                     311.633              311.633
 *******************************************************************************


 ENERGY| Total FORCE_EVAL ( FIST ) energy (a.u.):            -19.815903461734216


 *******************************************************************************
 ENSEMBLE TYPE                =                                              NVT
 STEP NUMBER                  =                                                2
 TIME [fs]                    =                                         2.000000
 CONSERVED QUANTITY [hartree] =                              -0.194593358387E+02

                                              INSTANTANEOUS             AVERAGES
 CPU TIME [s]                 =                        0.03                 0.19
 ENERGY DRIFT PER ATOM [K]    =         -0.143950607307E+01  -0.719753036536E+00
 POTENTIAL ENERGY[hartree]    =         -0.198159034617E+02  -0.198040264662E+02
 KINETIC ENERGY [hartree]     =          0.355671225010E+00   0.344372473610E+00
 TEMPERATURE [K]              =                     332.776              322.205
 *******************************************************************************


 ENERGY| Total FORCE_EVAL ( FIST ) energy (a.u.):            -19.841129305661909


 *******************************************************************************
 ENSEMBLE TYPE                =                                              NVT
 STEP NUMBER                  =                                                3
 TIME [fs]                    =                                         3.000000
 CONSERVED QUANTITY [hartree] =                              -0.194596476902E+02

                                              INSTANTANEOUS             AVERAGES
 CPU TIME [s]                 =                        0.03                 0.13
 ENERGY DRIFT PER ATOM [K]    =         -0.187331573935E+01  -0.110427393747E+01
 POTENTIAL ENERGY[hartree]    =         -0.198411293057E+02  -0.198163940793E+02
 KINETIC ENERGY [hartree]     =          0.380408281797E+00   0.356384409672E+00
 TEMPERATURE [K]              =                     355.921              333.443
 *******************************************************************************


 ENERGY| Total FORCE_EVAL ( FIST ) energy (a.u.):            -19.863303004422058


 *******************************************************************************
 ENSEMBLE TYPE                =                                              NVT
 STEP NUMBER                  =                                                4
 TIME [fs]                    =                                         4.000000
 CONSERVED QUANTITY [hartree] =                              -0.194594286402E+02

                                              INSTANTANEOUS             AVERAGES
 CPU TIME [s]                 =                        0.03                 0.11
 ENERGY DRIFT PER ATOM [K]    =         -0.156860022043E+01  -0.122035550821E+01
 POTENTIAL ENERGY[hartree]    =         -0.198633030044E+02  -0.198281213106E+02
 KINETIC ENERGY [hartree]     =          0.403826619689E+00   0.368244962177E+00
 TEMPERATURE [K]              =                     377.832              344.541
 *******************************************************************************


 ENERGY| Total FORCE_EVAL ( FIST ) energy (a.u.):            -19.885872494453977


 *******************************************************************************
 ENSEMBLE TYPE                =                                              NVT
 STEP NUMBER                  =                                                5
 TIME [fs]                    =                                         5.000000
 CONSERVED QUANTITY [hartree] =                              -0.194588504715E+02

                                              INSTANTANEOUS             AVERAGES
 CPU TIME [s]                 =                        0.03                 0.09
 ENERGY DRIFT PER ATOM [K]    =         -0.764322593783E+00  -0.112914892533E+01
 POTENTIAL ENERGY[hartree]    =         -0.198858724945E+02  -0.198396715474E+02
 KINETIC ENERGY [hartree]     =          0.426403809918E+00   0.379876731725E+00
 TEMPERATURE [K]              =                     398.956              355.424
 *******************************************************************************


 ENERGY| Total FORCE_EVAL ( FIST ) energy (a.u.):            -19.917638424579774


 *******************************************************************************
 ENSEMBLE TYPE                =                                              NVT
 STEP NUMBER                  =                                                6
 TIME [fs]                    =                                         6.000000
 CONSERVED QUANTITY [hartree] =                              -0.194583870528E+02

                                              INSTANTANEOUS             AVERAGES
 CPU TIME [s]                 =                        0.03                 0.08
 ENERGY DRIFT PER ATOM [K]    =         -0.119671109000E+00  -0.960902622605E+00
 POTENTIAL ENERGY[hartree]    =         -0.199176384246E+02  -0.198526660269E+02
 KINETIC ENERGY [hartree]     =          0.459574262732E+00   0.393159653559E+00
 TEMPERATURE [K]              =                     429.991              367.851
 *******************************************************************************


 ENERGY| Total FORCE_EVAL ( FIST ) energy (a.u.):            -19.965640287389363


 *******************************************************************************
 ENSEMBLE TYPE                =                                              NVT
 STEP NUMBER                  =                                                7
 TIME [fs]                    =                                         7.000000
 CONSERVED QUANTITY [hartree] =                              -0.194583701542E+02

                                              INSTANTANEOUS             AVERAGES
 CPU TIME [s]                 =                        0.03                 0.07
 ENERGY DRIFT PER ATOM [K]    =         -0.961638354309E-01  -0.837368510152E+00
 POTENTIAL ENERGY[hartree]    =         -0.199656402874E+02  -0.198688052070E+02
 KINETIC ENERGY [hartree]     =          0.507245650896E+00   0.409457653179E+00
 TEMPERATURE [K]              =                     474.594              383.100
 *******************************************************************************


 ENERGY| Total FORCE_EVAL ( FIST ) energy (a.u.):            -20.029794100340350


 *******************************************************************************
 ENSEMBLE TYPE                =                                              NVT
 STEP NUMBER                  =                                                8
 TIME [fs]                    =                                         8.000000
 CONSERVED QUANTITY [hartree] =                              -0.194588324312E+02

                                              INSTANTANEOUS             AVERAGES
 CPU TIME [s]                 =                        0.03                 0.07
 ENERGY DRIFT PER ATOM [K]    =         -0.739227167688E+00  -0.825100842344E+00
 POTENTIAL ENERGY[hartree]    =         -0.200297941003E+02  -0.198889288186E+02
 KINETIC ENERGY [hartree]     =          0.570315372374E+00   0.429564868078E+00
 TEMPERATURE [K]              =                     533.603              401.913
 *******************************************************************************


 ENERGY| Total FORCE_EVAL ( FIST ) energy (a.u.):            -20.102974458657471


 *******************************************************************************
 ENSEMBLE TYPE                =                                              NVT
 STEP NUMBER                  =                                                9
 TIME [fs]                    =                                         9.000000
 CONSERVED QUANTITY [hartree] =                              -0.194593636107E+02

                                              INSTANTANEOUS             AVERAGES
 CPU TIME [s]                 =                        0.03                 0.07
 ENERGY DRIFT PER ATOM [K]    =         -0.147813909430E+01  -0.897660648117E+00
 POTENTIAL ENERGY[hartree]    =         -0.201029744587E+02  -0.199127116675E+02
 KINETIC ENERGY [hartree]     =          0.642759443485E+00   0.453253154235E+00
 TEMPERATURE [K]              =                     601.384              424.077
 *******************************************************************************


 ENERGY| Total FORCE_EVAL ( FIST ) energy (a.u.):            -20.177195091215072


 *******************************************************************************
 ENSEMBLE TYPE                =                                              NVT
 STEP NUMBER                  =                                               10
 TIME [fs]                    =                                        10.000000
 CONSERVED QUANTITY [hartree] =                              -0.194595252397E+02

                                              INSTANTANEOUS             AVERAGES
 CPU TIME [s]                 =                        0.03                 0.06
 ENERGY DRIFT PER ATOM [K]    =         -0.170297760468E+01  -0.978192343773E+00
 POTENTIAL ENERGY[hartree]    =         -0.201771950912E+02  -0.199391600099E+02
 KINETIC ENERGY [hartree]     =          0.716205361744E+00   0.479548374985E+00
 TEMPERATURE [K]              =                     670.102              448.679
 *******************************************************************************


 ENERGY| Total FORCE_EVAL ( FIST ) energy (a.u.):            -20.249835578245641


 *******************************************************************************
 ENSEMBLE TYPE                =                                              NVT
 STEP NUMBER                  =                                               11
 TIME [fs]                    =                                        11.000000
 CONSERVED QUANTITY [hartree] =                              -0.194592138903E+02

                                              INSTANTANEOUS             AVERAGES
 CPU TIME [s]                 =                        0.03                 0.06
 ENERGY DRIFT PER ATOM [K]    =         -0.126986634508E+01  -0.100470816207E+01
 POTENTIAL ENERGY[hartree]    =         -0.202498355782E+02  -0.199674032434E+02
 KINETIC ENERGY [hartree]     =          0.788740390467E+00   0.507656740029E+00
 TEMPERATURE [K]              =                     737.968              474.978
 *******************************************************************************


 ENERGY| Total FORCE_EVAL ( FIST ) energy (a.u.):            -20.325450688081503


 *******************************************************************************
 ENSEMBLE TYPE                =                                              NVT
 STEP NUMBER                  =                                               12
 TIME [fs]                    =                                        12.000000
 CONSERVED QUANTITY [hartree] =                              -0.194587608443E+02

                                              INSTANTANEOUS             AVERAGES
 CPU TIME [s]                 =                        0.03                 0.06
 ENERGY DRIFT PER ATOM [K]    =         -0.639644164385E+00  -0.974286162266E+00
 POTENTIAL ENERGY[hartree]    =         -0.203254506881E+02  -0.199972405304E+02
 KINETIC ENERGY [hartree]     =          0.864285686861E+00   0.537375818932E+00
 TEMPERATURE [K]              =                     808.650              502.784
 *******************************************************************************


 ENERGY| Total FORCE_EVAL ( FIST ) energy (a.u.):            -20.410674449145652


 *******************************************************************************
 ENSEMBLE TYPE                =                                              NVT
 STEP NUMBER                  =                                               13
 TIME [fs]                    =                                        13.000000
 CONSERVED QUANTITY [hartree] =                              -0.194585353323E+02

                                              INSTANTANEOUS             AVERAGES
 CPU TIME [s]                 =                        0.03                 0.06
 ENERGY DRIFT PER ATOM [K]    =         -0.325939419048E+00  -0.924413335865E+00
 POTENTIAL ENERGY[hartree]    =         -0.204106744491E+02  -0.200290431396E+02
 KINETIC ENERGY [hartree]     =          0.947451016954E+00   0.568920064934E+00
 TEMPERATURE [K]              =                     886.462              532.298
 *******************************************************************************


 ENERGY| Total FORCE_EVAL ( FIST ) energy (a.u.):            -20.508600983110856


 *******************************************************************************
 ENSEMBLE TYPE                =                                              NVT
 STEP NUMBER                  =                                               14
 TIME [fs]                    =                                        14.000000
 CONSERVED QUANTITY [hartree] =                              -0.194588609284E+02

                                              INSTANTANEOUS             AVERAGES
 CPU TIME [s]                 =                        0.35                 0.08
 ENERGY DRIFT PER ATOM [K]    =         -0.778868932909E+00  -0.914017307082E+00
 POTENTIAL ENERGY[hartree]    =         -0.205086009831E+02  -0.200632972713E+02
 KINETIC ENERGY [hartree]     =          0.104392505618E+01   0.602848992880E+00
 TEMPERATURE [K]              =                     976.726              564.043
 *******************************************************************************


 ENERGY| Total FORCE_EVAL ( FIST ) energy (a.u.):            -20.615217441449825


 *******************************************************************************
 ENSEMBLE TYPE                =                                              NVT
 STEP NUMBER                  =                                               15
 TIME [fs]                    =                                        15.000000
 CONSERVED QUANTITY [hartree] =                              -0.194593504395E+02

                                              INSTANTANEOUS             AVERAGES
 CPU TIME [s]                 =                        0.03                 0.07
 ENERGY DRIFT PER ATOM [K]    =         -0.145981693647E+01  -0.950403949041E+00
 POTENTIAL ENERGY[hartree]    =         -0.206152174414E+02  -0.201000919493E+02
 KINETIC ENERGY [hartree]     =          0.115111741821E+01   0.639400221235E+00
 TEMPERATURE [K]              =                    1077.018              598.241
 *******************************************************************************


 ENERGY| Total FORCE_EVAL ( FIST ) energy (a.u.):            -20.722775714071876


 *******************************************************************************
 ENSEMBLE TYPE                =                                              NVT
 STEP NUMBER                  =                                               16
 TIME [fs]                    =                                        16.000000
 CONSERVED QUANTITY [hartree] =                              -0.194596231251E+02

                                              INSTANTANEOUS             AVERAGES
 CPU TIME [s]                 =                        0.04                 0.07
 ENERGY DRIFT PER ATOM [K]    =         -0.183914381968E+01  -0.100595019096E+01
 POTENTIAL ENERGY[hartree]    =         -0.207227757141E+02  -0.201390096846E+02
 KINETIC ENERGY [hartree]     =          0.125889000984E+01   0.678118333023E+00
 TEMPERATURE [K]              =                    1177.853              634.467
 *******************************************************************************


 ENERGY| Total FORCE_EVAL ( FIST ) energy (a.u.):            -20.826126103386081


 *******************************************************************************
 ENSEMBLE TYPE                =                                              NVT
 STEP NUMBER                  =                                               17
 TIME [fs]                    =                                        17.000000
 CONSERVED QUANTITY [hartree] =                              -0.194594937037E+02

                                              INSTANTANEOUS             AVERAGES
 CPU TIME [s]                 =                        0.03                 0.07
 ENERGY DRIFT PER ATOM [K]    =         -0.165910861569E+01  -0.104437127476E+01
 POTENTIAL ENERGY[hartree]    =         -0.208261261034E+02  -0.201794282974E+02
 KINETIC ENERGY [hartree]     =          0.135964363313E+01   0.718208056559E+00
 TEMPERATURE [K]              =                    1272.121              671.976
 *******************************************************************************


 ENERGY| Total FORCE_EVAL ( FIST ) energy (a.u.):            -20.927016521367797


 *******************************************************************************
 ENSEMBLE TYPE                =                                              NVT
 STEP NUMBER                  =                                               18
 TIME [fs]                    =                                        18.000000
 CONSERVED QUANTITY [hartree] =                              -0.194590427915E+02

                                              INSTANTANEOUS             AVERAGES
 CPU TIME [s]                 =                        0.03                 0.07
 ENERGY DRIFT PER ATOM [K]    =         -0.103185470589E+01  -0.104367590983E+01
 POTENTIAL ENERGY[hartree]    =         -0.209270165214E+02  -0.202209609765E+02
 KINETIC ENERGY [hartree]     =          0.145881359756E+01   0.759352808837E+00
 TEMPERATURE [K]              =                    1364.908              710.472
 *******************************************************************************


 ENERGY| Total FORCE_EVAL ( FIST ) energy (a.u.):            -21.032571111927609


 *******************************************************************************
 ENSEMBLE TYPE                =                                              NVT
 STEP NUMBER                  =                                               19
 TIME [fs]                    =                                        19.000000
 CONSERVED QUANTITY [hartree] =                              -0.194586725454E+02

                                              INSTANTANEOUS             AVERAGES
 CPU TIME [s]                 =                        0.04                 0.07
 ENERGY DRIFT PER ATOM [K]    =         -0.516813612876E+00  -0.101594631525E+01
 POTENTIAL ENERGY[hartree]    =         -0.210325711119E+02  -0.202636772995E+02
 KINETIC ENERGY [hartree]     =          0.156217439927E+01   0.801606576754E+00
 TEMPERATURE [K]              =                    1461.615              750.006
 *******************************************************************************


 ENERGY| Total FORCE_EVAL ( FIST ) energy (a.u.):            -21.148811405240611


 *******************************************************************************
 ENSEMBLE TYPE                =                                              NVT
 STEP NUMBER                  =                                               20
 TIME [fs]                    =                                        20.000000
 CONSERVED QUANTITY [hartree] =                              -0.194587081762E+02

                                              INSTANTANEOUS             AVERAGES
 CPU TIME [s]                 =                        0.03                 0.06
 ENERGY DRIFT PER ATOM [K]    =         -0.566378787166E+00  -0.993467938847E+00
 POTENTIAL ENERGY[hartree]    =         -0.211488114052E+02  -0.203079340048E+02
 KINETIC ENERGY [hartree]     =          0.167772685471E+01   0.845412590652E+00
 TEMPERATURE [K]              =                    1569.729              790.992
 *******************************************************************************


 ENERGY| Total FORCE_EVAL ( FIST ) energy (a.u.):            -21.274923147643999


 *******************************************************************************
 ENSEMBLE TYPE                =                                              NVT
 STEP NUMBER                  =                                               21
 TIME [fs]                    =                                        21.000000
 CONSERVED QUANTITY [hartree] =                              -0.194592890189E+02

                                              INSTANTANEOUS             AVERAGES
 CPU TIME [s]                 =                        0.04                 0.06
 ENERGY DRIFT PER ATOM [K]    =         -0.137437612058E+01  -0.101160642369E+01
 POTENTIAL ENERGY[hartree]    =         -0.212749231476E+02  -0.203539811068E+02
 KINETIC ENERGY [hartree]     =          0.180359239471E+01   0.891040200369E+00
 TEMPERATURE [K]              =                    1687.493              833.683
 *******************************************************************************


 ENERGY| Total FORCE_EVAL ( FIST ) energy (a.u.):            -21.402760487802489


 *******************************************************************************
 ENSEMBLE TYPE                =                                              NVT
 STEP NUMBER                  =                                               22
 TIME [fs]                    =                                        22.000000
 CONSERVED QUANTITY [hartree] =                              -0.194599939663E+02

                                              INSTANTANEOUS             AVERAGES
 CPU TIME [s]                 =                        0.03                 0.06
 ENERGY DRIFT PER ATOM [K]    =         -0.235501275900E+01  -0.107267034802E+01
 POTENTIAL ENERGY[hartree]    =         -0.214027604878E+02  -0.204016528968E+02
 KINETIC ENERGY [hartree]     =          0.192923117632E+01   0.938230699276E+00
 TEMPERATURE [K]              =                    1805.044              877.835
 *******************************************************************************


 ENERGY| Total FORCE_EVAL ( FIST ) energy (a.u.):            -21.522391742217874


 *******************************************************************************
 ENSEMBLE TYPE                =                                              NVT
 STEP NUMBER                  =                                               23
 TIME [fs]                    =                                        23.000000
 CONSERVED QUANTITY [hartree] =                              -0.194604184191E+02

                                              INSTANTANEOUS             AVERAGES
 CPU TIME [s]                 =                        0.03                 0.06
 ENERGY DRIFT PER ATOM [K]    =         -0.294545956919E+01  -0.115409596633E+01
 POTENTIAL ENERGY[hartree]    =         -0.215223917422E+02  -0.204503806727E+02
 KINETIC ENERGY [hartree]     =          0.204756155730E+01   0.986462475712E+00
 TEMPERATURE [K]              =                    1915.757              922.962
 *******************************************************************************


 ENERGY| Total FORCE_EVAL ( FIST ) energy (a.u.):            -21.628021351182550


 *******************************************************************************
 ENSEMBLE TYPE                =                                              NVT
 STEP NUMBER                  =                                               24
 TIME [fs]                    =                                        24.000000
 CONSERVED QUANTITY [hartree] =                              -0.194602891146E+02

                                              INSTANTANEOUS             AVERAGES
 CPU TIME [s]                 =                        0.03                 0.06
 ENERGY DRIFT PER ATOM [K]    =         -0.276558691918E+01  -0.122124142270E+01
 POTENTIAL ENERGY[hartree]    =         -0.216280213512E+02  -0.204994490343E+02
 KINETIC ENERGY [hartree]     =          0.215290328780E+01   0.103506417622E+01
 TEMPERATURE [K]              =                    2014.318              968.436
 *******************************************************************************


 ENERGY| Total FORCE_EVAL ( FIST ) energy (a.u.):            -21.722127516183139


 *******************************************************************************
 ENSEMBLE TYPE                =                                              NVT
 STEP NUMBER                  =                                               25
 TIME [fs]                    =                                        25.000000
 CONSERVED QUANTITY [hartree] =                              -0.194599985212E+02

                                              INSTANTANEOUS             AVERAGES
 CPU TIME [s]                 =                        0.03                 0.06
 ENERGY DRIFT PER ATOM [K]    =         -0.236134902747E+01  -0.126684572689E+01
 POTENTIAL ENERGY[hartree]    =         -0.217221275162E+02  -0.205483561736E+02
 KINETIC ENERGY [hartree]     =          0.224701043184E+01   0.108354202644E+01
 TEMPERATURE [K]              =                    2102.367             1013.793
 *******************************************************************************


 ENERGY| Total FORCE_EVAL ( FIST ) energy (a.u.):            -21.810967205711371


 *******************************************************************************
 ENSEMBLE TYPE                =                                              NVT
 STEP NUMBER                  =                                               26
 TIME [fs]                    =                                        26.000000
 CONSERVED QUANTITY [hartree] =                              -0.194597834339E+02

                                              INSTANTANEOUS             AVERAGES
 CPU TIME [s]                 =                        0.03                 0.06
 ENERGY DRIFT PER ATOM [K]    =         -0.206214583537E+01  -0.129743419260E+01
 POTENTIAL ENERGY[hartree]    =         -0.218109672057E+02  -0.205969181364E+02
 KINETIC ENERGY [hartree]     =          0.233106223740E+01   0.113152357302E+01
 TEMPERATURE [K]              =                    2181.008             1058.686
 *******************************************************************************


 ENERGY| Total FORCE_EVAL ( FIST ) energy (a.u.):            -21.898529097496777


 *******************************************************************************
 ENSEMBLE TYPE                =                                              NVT
 STEP NUMBER                  =                                               27
 TIME [fs]                    =                                        27.000000
 CONSERVED QUANTITY [hartree] =                              -0.194599980588E+02

                                              INSTANTANEOUS             AVERAGES
 CPU TIME [s]                 =                        0.03                 0.05
 ENERGY DRIFT PER ATOM [K]    =         -0.236070577287E+01  -0.133681462150E+01
 POTENTIAL ENERGY[hartree]    =         -0.218985290975E+02  -0.206451259498E+02
 KINETIC ENERGY [hartree]     =          0.241920904588E+01   0.117921562757E+01
 TEMPERATURE [K]              =                    2263.481             1103.308
 *******************************************************************************


 ENERGY| Total FORCE_EVAL ( FIST ) energy (a.u.):            -21.981517865677510


 *******************************************************************************
 ENSEMBLE TYPE                =                                              NVT
 STEP NUMBER                  =                                               28
 TIME [fs]                    =                                        28.000000
 CONSERVED QUANTITY [hartree] =                              -0.194606094954E+02

                                              INSTANTANEOUS             AVERAGES
 CPU TIME [s]                 =                        0.03                 0.05
 ENERGY DRIFT PER ATOM [K]    =         -0.321126154599E+01  -0.140375915452E+01
 POTENTIAL ENERGY[hartree]    =         -0.219815178657E+02  -0.206928542325E+02
 KINETIC ENERGY [hartree]     =          0.250160788491E+01   0.122644392247E+01
 TEMPERATURE [K]              =                    2340.576             1147.496
 *******************************************************************************


 ENERGY| Total FORCE_EVAL ( FIST ) energy (a.u.):            -22.051101381169016


 *******************************************************************************
 ENSEMBLE TYPE                =                                              NVT
 STEP NUMBER                  =                                               29
 TIME [fs]                    =                                        29.000000
 CONSERVED QUANTITY [hartree] =                              -0.194612384763E+02

                                              INSTANTANEOUS             AVERAGES
 CPU TIME [s]                 =                        0.03                 0.05
 ENERGY DRIFT PER ATOM [K]    =         -0.408622286931E+01  -0.149625790331E+01
 POTENTIAL ENERGY[hartree]    =         -0.220511013812E+02  -0.207396903410E+02
 KINETIC ENERGY [hartree]     =          0.257238638325E+01   0.127285573146E+01
 TEMPERATURE [K]              =                    2406.798             1190.920
 *******************************************************************************


 ENERGY| Total FORCE_EVAL ( FIST ) energy (a.u.):            -22.098880285128892


 *******************************************************************************
 ENSEMBLE TYPE                =                                              NVT
 STEP NUMBER                  =                                               30
 TIME [fs]                    =                                        30.000000
 CONSERVED QUANTITY [hartree] =                              -0.194614571452E+02

                                              INSTANTANEOUS             AVERAGES
 CPU TIME [s]                 =                        0.03                 0.05
 ENERGY DRIFT PER ATOM [K]    =         -0.439040837293E+01  -0.159272958563E+01
 POTENTIAL ENERGY[hartree]    =         -0.220988802851E+02  -0.207849966725E+02
 KINETIC ENERGY [hartree]     =          0.261885270259E+01   0.131772229717E+01
 TEMPERATURE [K]              =                    2450.273             1232.899
 *******************************************************************************


 ENERGY| Total FORCE_EVAL ( FIST ) energy (a.u.):            -22.123583441601703


 *******************************************************************************
 ENSEMBLE TYPE                =                                              NVT
 STEP NUMBER                  =                                               31
 TIME [fs]                    =                                        31.000000
 CONSERVED QUANTITY [hartree] =                              -0.194610323435E+02

                                              INSTANTANEOUS             AVERAGES
 CPU TIME [s]                 =                        0.27                 0.06
 ENERGY DRIFT PER ATOM [K]    =         -0.379947616873E+01  -0.166391495928E+01
 POTENTIAL ENERGY[hartree]    =         -0.221235834416E+02  -0.208281768909E+02
 KINETIC ENERGY [hartree]     =          0.264032230957E+01   0.136038681370E+01
 TEMPERATURE [K]              =                    2470.361             1272.817
 *******************************************************************************


 ENERGY| Total FORCE_EVAL ( FIST ) energy (a.u.):            -22.133235566734889


 *******************************************************************************
 ENSEMBLE TYPE                =                                              NVT
 STEP NUMBER                  =                                               32
 TIME [fs]                    =                                        32.000000
 CONSERVED QUANTITY [hartree] =                              -0.194603219544E+02

                                              INSTANTANEOUS             AVERAGES
 CPU TIME [s]                 =                        0.03                 0.06
 ENERGY DRIFT PER ATOM [K]    =         -0.281126972772E+01  -0.169976979579E+01
 POTENTIAL ENERGY[hartree]    =         -0.221332355667E+02  -0.208689599745E+02
 KINETIC ENERGY [hartree]     =          0.264630944851E+01   0.140057189603E+01
 TEMPERATURE [K]              =                    2475.963             1310.415
 *******************************************************************************


 ENERGY| Total FORCE_EVAL ( FIST ) energy (a.u.):            -22.140497424992340


 *******************************************************************************
 ENSEMBLE TYPE                =                                              NVT
 STEP NUMBER                  =                                               33
 TIME [fs]                    =                                        33.000000
 CONSERVED QUANTITY [hartree] =                              -0.194596298849E+02

                                              INSTANTANEOUS             AVERAGES
 CPU TIME [s]                 =                        0.03                 0.06
 ENERGY DRIFT PER ATOM [K]    =         -0.184854720514E+01  -0.170427820213E+01
 POTENTIAL ENERGY[hartree]    =         -0.221404974250E+02  -0.209074914124E+02
 KINETIC ENERGY [hartree]     =          0.265808910577E+01   0.143867847815E+01
 TEMPERATURE [K]              =                    2486.984             1346.069
 *******************************************************************************


 ENERGY| Total FORCE_EVAL ( FIST ) energy (a.u.):            -22.156380589191048


 *******************************************************************************
 ENSEMBLE TYPE                =                                              NVT
 STEP NUMBER                  =                                               34
 TIME [fs]                    =                                        34.000000
 CONSERVED QUANTITY [hartree] =                              -0.194594759881E+02

                                              INSTANTANEOUS             AVERAGES
 CPU TIME [s]                 =                        0.03                 0.06
 ENERGY DRIFT PER ATOM [K]    =         -0.163446482284E+01  -0.170222486745E+01
 POTENTIAL ENERGY[hartree]    =         -0.221563805892E+02  -0.209442234470E+02
 KINETIC ENERGY [hartree]     =          0.267117670159E+01   0.147492842590E+01
 TEMPERATURE [K]              =                    2499.229             1379.985
 *******************************************************************************


 ENERGY| Total FORCE_EVAL ( FIST ) energy (a.u.):            -22.183939910005343


 *******************************************************************************
 ENSEMBLE TYPE                =                                              NVT
 STEP NUMBER                  =                                               35
 TIME [fs]                    =                                        35.000000
 CONSERVED QUANTITY [hartree] =                              -0.194596737435E+02

                                              INSTANTANEOUS             AVERAGES
 CPU TIME [s]                 =                        0.03                 0.06
 ENERGY DRIFT PER ATOM [K]    =         -0.190955792925E+01  -0.170814866921E+01
 POTENTIAL ENERGY[hartree]    =         -0.221839399100E+02  -0.209796439174E+02
 KINETIC ENERGY [hartree]     =          0.269867310925E+01   0.150989255971E+01
 TEMPERATURE [K]              =                    2524.956             1412.699
 *******************************************************************************


 ENERGY| Total FORCE_EVAL ( FIST ) energy (a.u.):            -22.220580259735172


 *******************************************************************************
 ENSEMBLE TYPE                =                                              NVT
 STEP NUMBER                  =                                               36
 TIME [fs]                    =                                        36.000000
 CONSERVED QUANTITY [hartree] =                              -0.194599750915E+02

                                              INSTANTANEOUS             AVERAGES
 CPU TIME [s]                 =                        0.03                 0.06
 ENERGY DRIFT PER ATOM [K]    =         -0.232875644041E+01  -0.172538777397E+01
 POTENTIAL ENERGY[hartree]    =         -0.222205802597E+02  -0.210141143713E+02
 KINETIC ENERGY [hartree]     =          0.273327838172E+01   0.154387549921E+01
 TEMPERATURE [K]              =                    2557.333             1444.494
 *******************************************************************************


 ENERGY| Total FORCE_EVAL ( FIST ) energy (a.u.):            -22.263417358941787


 *******************************************************************************
 ENSEMBLE TYPE                =                                              NVT
 STEP NUMBER                  =                                               37
 TIME [fs]                    =                                        37.000000
 CONSERVED QUANTITY [hartree] =                              -0.194599582395E+02

                                              INSTANTANEOUS             AVERAGES
 CPU TIME [s]                 =                        0.03                 0.05
 ENERGY DRIFT PER ATOM [K]    =         -0.230531401386E+01  -0.174106145613E+01
 POTENTIAL ENERGY[hartree]    =         -0.222634173589E+02  -0.210478793169E+02
 KINETIC ENERGY [hartree]     =          0.277635547201E+01   0.157718576874E+01
 TEMPERATURE [K]              =                    2597.638             1475.660
 *******************************************************************************


 ENERGY| Total FORCE_EVAL ( FIST ) energy (a.u.):            -22.313960442980598


 *******************************************************************************
 ENSEMBLE TYPE                =                                              NVT
 STEP NUMBER                  =                                               38
 TIME [fs]                    =                                        38.000000
 CONSERVED QUANTITY [hartree] =                              -0.194595626027E+02

                                              INSTANTANEOUS             AVERAGES
 CPU TIME [s]                 =                        0.03                 0.05
 ENERGY DRIFT PER ATOM [K]    =         -0.175495238720E+01  -0.174142700695E+01
 POTENTIAL ENERGY[hartree]    =         -0.223139604430E+02  -0.210811972413E+02
 KINETIC ENERGY [hartree]     =          0.282713914324E+01   0.161007927860E+01
 TEMPERATURE [K]              =                    2645.152             1506.436
 *******************************************************************************


 ENERGY| Total FORCE_EVAL ( FIST ) energy (a.u.):            -22.377526865547960


 *******************************************************************************
 ENSEMBLE TYPE                =                                              NVT
 STEP NUMBER                  =                                               39
 TIME [fs]                    =                                        39.000000
 CONSERVED QUANTITY [hartree] =                              -0.194593268959E+02

                                              INSTANTANEOUS             AVERAGES
 CPU TIME [s]                 =                        0.03                 0.05
 ENERGY DRIFT PER ATOM [K]    =         -0.142706590703E+01  -0.173336646592E+01
 POTENTIAL ENERGY[hartree]    =         -0.223775268655E+02  -0.211144364624E+02
 KINETIC ENERGY [hartree]     =          0.289145167620E+01   0.164293498110E+01
 TEMPERATURE [K]              =                    2705.325             1537.177
 *******************************************************************************


 ENERGY| Total FORCE_EVAL ( FIST ) energy (a.u.):            -22.457663855673331


 *******************************************************************************
 ENSEMBLE TYPE                =                                              NVT
 STEP NUMBER                  =                                               40
 TIME [fs]                    =                                        40.000000
 CONSERVED QUANTITY [hartree] =                              -0.194595266587E+02

                                              INSTANTANEOUS             AVERAGES
 CPU TIME [s]                 =                        0.26                 0.06
 ENERGY DRIFT PER ATOM [K]    =         -0.170495150490E+01  -0.173265609190E+01
 POTENTIAL ENERGY[hartree]    =         -0.224576638557E+02  -0.211480171473E+02
 KINETIC ENERGY [hartree]     =          0.296821556941E+01   0.167606699581E+01
 TEMPERATURE [K]              =                    2777.147             1568.176
 *******************************************************************************


 ENERGY| Total FORCE_EVAL ( FIST ) energy (a.u.):            -22.551604006838602


 *******************************************************************************
 ENSEMBLE TYPE                =                                              NVT
 STEP NUMBER                  =                                               41
 TIME [fs]                    =                                        41.000000
 CONSERVED QUANTITY [hartree] =                              -0.194601302797E+02

                                              INSTANTANEOUS             AVERAGES
 CPU TIME [s]                 =                        0.04                 0.06
 ENERGY DRIFT PER ATOM [K]    =         -0.254463529026E+01  -0.175246046259E+01
 POTENTIAL ENERGY[hartree]    =         -0.225516040068E+02  -0.211822509731E+02
 KINETIC ENERGY [hartree]     =          0.306036690048E+01   0.170983040812E+01
 TEMPERATURE [K]              =                    2863.367             1599.766
 *******************************************************************************


 ENERGY| Total FORCE_EVAL ( FIST ) energy (a.u.):            -22.649203434845337


 *******************************************************************************
 ENSEMBLE TYPE                =                                              NVT
 STEP NUMBER                  =                                               42
 TIME [fs]                    =                                        42.000000
 CONSERVED QUANTITY [hartree] =                              -0.194608197962E+02

                                              INSTANTANEOUS             AVERAGES
 CPU TIME [s]                 =                        0.02                 0.06
 ENERGY DRIFT PER ATOM [K]    =         -0.350380638120E+01  -0.179415917494E+01
 POTENTIAL ENERGY[hartree]    =         -0.226492034348E+02  -0.212171784127E+02
 KINETIC ENERGY [hartree]     =          0.315533713790E+01   0.174424723502E+01
 TEMPERATURE [K]              =                    2952.224             1631.968
 *******************************************************************************


 ENERGY| Total FORCE_EVAL ( FIST ) energy (a.u.):            -22.739219255480414


 *******************************************************************************
 ENSEMBLE TYPE                =                                              NVT
 STEP NUMBER                  =                                               43
 TIME [fs]                    =                                        43.000000
 CONSERVED QUANTITY [hartree] =                              -0.194612332046E+02

                                              INSTANTANEOUS             AVERAGES
 CPU TIME [s]                 =                        0.03                 0.06
 ENERGY DRIFT PER ATOM [K]    =         -0.407888961806E+01  -0.184729244106E+01
[...]


 ENERGY| Total FORCE_EVAL ( FIST ) energy (a.u.):            -23.360637674033523


 *******************************************************************************
 ENSEMBLE TYPE                =                                              NVT
 STEP NUMBER                  =                                               87
 TIME [fs]                    =                                        87.000000
 CONSERVED QUANTITY [hartree] =                              -0.194603385306E+02

                                              INSTANTANEOUS             AVERAGES
 CPU TIME [s]                 =                        0.04                 0.07
 ENERGY DRIFT PER ATOM [K]    =         -0.283432844085E+01  -0.237403958763E+01
 POTENTIAL ENERGY[hartree]    =         -0.233606376740E+02  -0.222653083863E+02
 KINETIC ENERGY [hartree]     =          0.372406429147E+01   0.274216199644E+01
 TEMPERATURE [K]              =                    3484.341             2565.645
 *******************************************************************************


 ENERGY| Total FORCE_EVAL ( FIST ) energy (a.u.):            -23.361781445864327


 *******************************************************************************
 ENSEMBLE TYPE                =                                              NVT
 STEP NUMBER                  =                                               88
 TIME [fs]                    =                                        88.000000
 CONSERVED QUANTITY [hartree] =                              -0.194613368378E+02

                                              INSTANTANEOUS             AVERAGES
 CPU TIME [s]                 =                        0.02                 0.07
 ENERGY DRIFT PER ATOM [K]    =         -0.422305140891E+01  -0.239505108560E+01
 POTENTIAL ENERGY[hartree]    =         -0.233617814459E+02  -0.222777683074E+02
 KINETIC ENERGY [hartree]     =          0.372279587557E+01   0.275330556325E+01
 TEMPERATURE [K]              =                    3483.154             2576.071
 *******************************************************************************


 ENERGY| Total FORCE_EVAL ( FIST ) energy (a.u.):            -23.351745195286856


 *******************************************************************************
 ENSEMBLE TYPE                =                                              NVT
 STEP NUMBER                  =                                               89
 TIME [fs]                    =                                        89.000000
 CONSERVED QUANTITY [hartree] =                              -0.194616205884E+02

                                              INSTANTANEOUS             AVERAGES
 CPU TIME [s]                 =                        0.03                 0.07
 ENERGY DRIFT PER ATOM [K]    =         -0.461777057105E+01  -0.242002546184E+01
 POTENTIAL ENERGY[hartree]    =         -0.233517451953E+02  -0.222898354634E+02
 KINETIC ENERGY [hartree]     =          0.370987757105E+01   0.276405356334E+01
 TEMPERATURE [K]              =                    3471.068             2586.128
 *******************************************************************************


 ENERGY| Total FORCE_EVAL ( FIST ) energy (a.u.):            -23.327005813259795


 *******************************************************************************
 ENSEMBLE TYPE                =                                              NVT
 STEP NUMBER                  =                                               90
 TIME [fs]                    =                                        90.000000
 CONSERVED QUANTITY [hartree] =                              -0.194610169406E+02

                                              INSTANTANEOUS             AVERAGES
 CPU TIME [s]                 =                        0.04                 0.07
 ENERGY DRIFT PER ATOM [K]    =         -0.377804953744E+01  -0.243511461823E+01
 POTENTIAL ENERGY[hartree]    =         -0.233270058133E+02  -0.223013595784E+02
 KINETIC ENERGY [hartree]     =          0.368313351330E+01   0.277426556278E+01
 TEMPERATURE [K]              =                    3446.045             2595.682
 *******************************************************************************


 ENERGY| Total FORCE_EVAL ( FIST ) energy (a.u.):            -23.296928074682036


 *******************************************************************************
 ENSEMBLE TYPE                =                                              NVT
 STEP NUMBER                  =                                               91
 TIME [fs]                    =                                        91.000000
 CONSERVED QUANTITY [hartree] =                              -0.194599451667E+02

                                              INSTANTANEOUS             AVERAGES
 CPU TIME [s]                 =                        0.35                 0.07
 ENERGY DRIFT PER ATOM [K]    =         -0.228712873976E+01  -0.243348839979E+01
 POTENTIAL ENERGY[hartree]    =         -0.232969280747E+02  -0.223122998916E+02
 KINETIC ENERGY [hartree]     =          0.365545145758E+01   0.278394892426E+01
 TEMPERATURE [K]              =                    3420.145             2604.742
 *******************************************************************************


 ENERGY| Total FORCE_EVAL ( FIST ) energy (a.u.):            -23.276799769013252


 *******************************************************************************
 ENSEMBLE TYPE                =                                              NVT
 STEP NUMBER                  =                                               92
 TIME [fs]                    =                                        92.000000
 CONSERVED QUANTITY [hartree] =                              -0.194596410059E+02

                                              INSTANTANEOUS             AVERAGES
 CPU TIME [s]                 =                        0.04                 0.07
 ENERGY DRIFT PER ATOM [K]    =         -0.186401744621E+01  -0.242729849812E+01
 POTENTIAL ENERGY[hartree]    =         -0.232767997690E+02  -0.223227835859E+02
 KINETIC ENERGY [hartree]     =          0.363604205663E+01   0.279321080614E+01
 TEMPERATURE [K]              =                    3401.985             2613.408
 *******************************************************************************


 ENERGY| Total FORCE_EVAL ( FIST ) energy (a.u.):            -23.272749387057591


 *******************************************************************************
 ENSEMBLE TYPE                =                                              NVT
 STEP NUMBER                  =                                               93
 TIME [fs]                    =                                        93.000000
 CONSERVED QUANTITY [hartree] =                              -0.194601328527E+02

                                              INSTANTANEOUS             AVERAGES
 CPU TIME [s]                 =                        0.04                 0.07
 ENERGY DRIFT PER ATOM [K]    =         -0.254821449872E+01  -0.242859867017E+01
 POTENTIAL ENERGY[hartree]    =         -0.232727493871E+02  -0.223329982719E+02
 KINETIC ENERGY [hartree]     =          0.362957974337E+01   0.280220402052E+01
 TEMPERATURE [K]              =                    3395.939             2621.822
 *******************************************************************************


 ENERGY| Total FORCE_EVAL ( FIST ) energy (a.u.):            -23.275837693223327


 *******************************************************************************
 ENSEMBLE TYPE                =                                              NVT
 STEP NUMBER                  =                                               94
 TIME [fs]                    =                                        94.000000
 CONSERVED QUANTITY [hartree] =                              -0.194614753725E+02

                                              INSTANTANEOUS             AVERAGES
 CPU TIME [s]                 =                        0.04                 0.07
 ENERGY DRIFT PER ATOM [K]    =         -0.441576390022E+01  -0.244973872581E+01
 POTENTIAL ENERGY[hartree]    =         -0.232758376932E+02  -0.223430284785E+02
 KINETIC ENERGY [hartree]     =          0.362771053327E+01   0.281098600470E+01
 TEMPERATURE [K]              =                    3394.190             2630.039
 *******************************************************************************


 ENERGY| Total FORCE_EVAL ( FIST ) energy (a.u.):            -23.268081809973555


 *******************************************************************************
 ENSEMBLE TYPE                =                                              NVT
 STEP NUMBER                  =                                               95
 TIME [fs]                    =                                        95.000000
 CONSERVED QUANTITY [hartree] =                              -0.194622260025E+02

                                              INSTANTANEOUS             AVERAGES
 CPU TIME [s]                 =                        0.04                 0.07
 ENERGY DRIFT PER ATOM [K]    =         -0.545994865307E+01  -0.248142514609E+01
 POTENTIAL ENERGY[hartree]    =         -0.232680818100E+02  -0.223527658820E+02
 KINETIC ENERGY [hartree]     =          0.361964095309E+01   0.281949816205E+01
 TEMPERATURE [K]              =                    3386.640             2638.003
 *******************************************************************************


 ENERGY| Total FORCE_EVAL ( FIST ) energy (a.u.):            -23.239533528108737


 *******************************************************************************
 ENSEMBLE TYPE                =                                              NVT
 STEP NUMBER                  =                                               96
 TIME [fs]                    =                                        96.000000
 CONSERVED QUANTITY [hartree] =                              -0.194619296975E+02

                                              INSTANTANEOUS             AVERAGES
 CPU TIME [s]                 =                        0.37                 0.08
 ENERGY DRIFT PER ATOM [K]    =         -0.504776534075E+01  -0.250815785646E+01
 POTENTIAL ENERGY[hartree]    =         -0.232395335281E+02  -0.223620030450E+02
 KINETIC ENERGY [hartree]     =          0.358844217525E+01   0.282750799552E+01
 TEMPERATURE [K]              =                    3357.449             2645.497
 *******************************************************************************


 ENERGY| Total FORCE_EVAL ( FIST ) energy (a.u.):            -23.196263653306445


 *******************************************************************************
 ENSEMBLE TYPE                =                                              NVT
 STEP NUMBER                  =                                               97
 TIME [fs]                    =                                        97.000000
 CONSERVED QUANTITY [hartree] =                              -0.194609552088E+02

                                              INSTANTANEOUS             AVERAGES
 CPU TIME [s]                 =                        0.04                 0.08
 ENERGY DRIFT PER ATOM [K]    =         -0.369217581084E+01  -0.252036422712E+01
 POTENTIAL ENERGY[hartree]    =         -0.231962636533E+02  -0.223706036698E+02
 KINETIC ENERGY [hartree]     =          0.354849903774E+01   0.283494089286E+01
 TEMPERATURE [K]              =                    3320.077             2652.452
 *******************************************************************************


 ENERGY| Total FORCE_EVAL ( FIST ) energy (a.u.):            -23.155300727341523


 *******************************************************************************
 ENSEMBLE TYPE                =                                              NVT
 STEP NUMBER                  =                                               98
 TIME [fs]                    =                                        98.000000
 CONSERVED QUANTITY [hartree] =                              -0.194600378199E+02

                                              INSTANTANEOUS             AVERAGES
 CPU TIME [s]                 =                        0.05                 0.08
 ENERGY DRIFT PER ATOM [K]    =         -0.241601656797E+01  -0.251929945509E+01
 POTENTIAL ENERGY[hartree]    =         -0.231553007273E+02  -0.223786107827E+02
 KINETIC ENERGY [hartree]     =          0.350567237439E+01   0.284178509165E+01
 TEMPERATURE [K]              =                    3280.007             2658.855
 *******************************************************************************


 ENERGY| Total FORCE_EVAL ( FIST ) energy (a.u.):            -23.131302743083285


 *******************************************************************************
 ENSEMBLE TYPE                =                                              NVT
 STEP NUMBER                  =                                               99
 TIME [fs]                    =                                        99.000000
 CONSERVED QUANTITY [hartree] =                              -0.194600219711E+02

                                              INSTANTANEOUS             AVERAGES
 CPU TIME [s]                 =                        0.04                 0.08
 ENERGY DRIFT PER ATOM [K]    =         -0.239396966222E+01  -0.251803349758E+01
 POTENTIAL ENERGY[hartree]    =         -0.231313027431E+02  -0.223862137318E+02
 KINETIC ENERGY [hartree]     =          0.348073668644E+01   0.284823914816E+01
 TEMPERATURE [K]              =                    3256.677             2664.894
 *******************************************************************************


 ENERGY| Total FORCE_EVAL ( FIST ) energy (a.u.):            -23.125464937596259


 *******************************************************************************
 ENSEMBLE TYPE                =                                              NVT
 STEP NUMBER                  =                                              100
 TIME [fs]                    =                                       100.000000
 CONSERVED QUANTITY [hartree] =                              -0.194607451157E+02

                                              INSTANTANEOUS             AVERAGES
 CPU TIME [s]                 =                        0.03                 0.07
 ENERGY DRIFT PER ATOM [K]    =         -0.339991990947E+01  -0.252685236170E+01
 POTENTIAL ENERGY[hartree]    =         -0.231254649376E+02  -0.223936062438E+02
 KINETIC ENERGY [hartree]     =          0.347091330382E+01   0.285446588972E+01
 TEMPERATURE [K]              =                    3247.486             2670.720
 *******************************************************************************


 -------------------------------------------------------------------------------
 -                                                                             -
 -                                DBCSR STATISTICS                             -
 -                                                                             -
 -------------------------------------------------------------------------------
 COUNTER                                    TOTAL       BLAS       SMM       ACC
 flops inhomo. stacks                           0       0.0%      0.0%      0.0%
 flops total                         0.000000E+00       0.0%      0.0%      0.0%
 flops max/rank                      0.000000E+00       0.0%      0.0%      0.0%
 matmuls inhomo. stacks                         0       0.0%      0.0%      0.0%
 matmuls total                                  0       0.0%      0.0%      0.0%
 number of processed stacks                     0       0.0%      0.0%      0.0%
 average stack size                                     0.0       0.0       0.0
 marketing flops                     0.000000E+00
 -------------------------------------------------------------------------------

 MEMORY| Estimated peak process memory [MiB]                                   0

 -------------------------------------------------------------------------------
 -                                                                             -
 -                           R E F E R E N C E S                               -
 -                                                                             -
 -------------------------------------------------------------------------------
 
 CP2K version 6.1, the CP2K developers group (2018).
 CP2K is freely available from https://www.cp2k.org/ .

 Schuett, Ole; Messmer, Peter; Hutter, Juerg; VandeVondele, Joost. 
 Electronic Structure Calculations on Graphics Processing Units, John Wiley & Sons, Ltd, 173-190 (2016). 
 GPU-Accelerated Sparse Matrix-Matrix Multiplication for Linear Scaling Density Functional Theory.
 http://dx.doi.org/10.1002/9781118670712.ch8


 Borstnik, U; VandeVondele, J; Weber, V; Hutter, J. 
 PARALLEL COMPUTING, 40 (5-6), 47-58 (2014). 
 Sparse matrix multiplication: The distributed block-compressed sparse
 row library.
 http://dx.doi.org/10.1016/j.parco.2014.03.012


 Hutter, J; Iannuzzi, M; Schiffmann, F; VandeVondele, J. 
 WILEY INTERDISCIPLINARY REVIEWS-COMPUTATIONAL MOLECULAR SCIENCE, 4 (1), 15-25 (2014). 
 CP2K: atomistic simulations of condensed matter systems.
 http://dx.doi.org/10.1002/wcms.1159


 Bussi, G; Donadio, D; Parrinello, M. 
 JOURNAL OF CHEMICAL PHYSICS, 126 (1), 014101 (2007). 
 Canonical sampling through velocity rescaling.
 http://dx.doi.org/10.1063/1.2408420


 Frigo, M; Johnson, SG. 
 PROCEEDINGS OF THE IEEE, 93 (2), 216-231 (2005). 
 The design and implementation of FFTW3.
 http://dx.doi.org/10.1109/JPROC.2004.840301


 -------------------------------------------------------------------------------
 -                                                                             -
 -                                T I M I N G                                  -
 -                                                                             -
 -------------------------------------------------------------------------------
 SUBROUTINE                       CALLS  ASD         SELF TIME        TOTAL TIME
                                MAXIMUM       AVERAGE  MAXIMUM  AVERAGE  MAXIMUM
 CP2K                                 1  1.0    0.005    0.005    7.533    7.533
 qs_mol_dyn_low                       1  2.0    0.008    0.008    7.500    7.500
 fist_calc_energy_force             101  4.0    0.006    0.006    6.535    6.535
 velocity_verlet                    100  3.0    0.024    0.024    6.293    6.293
 list_control                       101  5.0    0.002    0.002    3.944    3.944
 build_fist_neighbor_lists           13  5.9    0.000    0.000    3.942    3.942
 build_neighbor_lists                13  6.9    3.926    3.926    3.927    3.927
 force_nonbond                      101  5.0    2.574    2.574    2.574    2.574
 md_output                          100  3.0    0.001    0.001    0.872    0.872
 md_write_output                    101  4.0    0.616    0.616    0.803    0.803
 write_trajectory                   404  5.0    0.051    0.051    0.185    0.185
 -------------------------------------------------------------------------------

 The number of warnings for this run is : 4
 
 -------------------------------------------------------------------------------
  **** **** ******  **  PROGRAM ENDED AT                 2020-04-23 18:03:07.144
 ***** ** ***  *** **   PROGRAM RAN ON                         bass-macbook.home
 **    ****   ******    PROGRAM RAN BY                                  bvanbeek
 ***** **    ** ** **   PROGRAM PROCESS ID                                 96247
  **** **  *******  **  PROGRAM STOPPED IN /Users/bvanbeek/Documents/GitHub/auto
                                           -FOX/FOX/examples/private/MM_MD_workd
                                           ir/md.027
