     227
 i =        0, time =        0.000, E =        -2.7056307016
 Cd        -8.6216924880        0.4810107428        3.4775887729
 Cd        -5.8723589632       -0.2566559957        7.1151373767
 Cd        -8.4076147924       -2.1531404527        0.3867588804
 Cd        -6.8957642261       -3.2896665849        3.9600318291
 Cd        -3.6930098048       -3.6992689615        7.3819491709
 Cd        -6.4429261463       -6.2347087238        0.4622469067
 Cd        -4.3123952394       -6.8285875372        3.9039095072
 Cd        -6.1141073353        3.8626235599        2.9066844924
 Cd        -3.6048790416        2.8797284733        6.5917986711
 Cd        -6.7531255596        1.1841266196       -0.3182182747
 Cd        -4.0437606329        0.0729837467        3.0511954168
 Cd        -1.7753257667       -0.3121054857        6.8316599018
 Cd        -6.3661028473       -1.4630135273       -3.4383357626
 Cd        -4.3602814436       -3.1214810613       -0.1759283953
 Cd        -2.2424276819       -3.6242998489        3.6335413818
 Cd         0.1757294635       -3.9625201566        7.0364714760
 Cd        -4.2692200317       -5.9860442556       -3.0005266361
 Cd        -2.2482225396       -6.7972628816        0.6786391664
 Cd         0.0669003827       -7.3030327295        3.8545421700
 Cd        -4.0792754193        7.4105475565        2.4175118797
 Cd        -1.6116442377        6.4880648240        6.2478272306
 Cd        -4.3308002626        4.8127262164       -0.6762739309
 Cd        -1.8326132452        3.6694977750        3.1598212265
 Cd         0.4939817277        3.1637060931        6.7202662426
 Cd        -4.5980154021        1.9988297698       -4.0880170010
 Cd        -2.1651194586        1.0165564496       -0.4536921834
 Cd         0.1376109507       -0.0659106884        3.1336818174
 Cd         2.6419074521       -0.6636939286        6.8958319365
 Cd        -4.1515129292       -0.5348426091       -6.9620217917
 Cd        -2.2012490343       -1.8491984656       -3.4894107829
 Cd         0.0359311218       -2.8494155653       -0.0264680683
 Cd         2.4407298775       -3.8224684908        3.5289587884
 Cd         4.5907434619       -4.2169180472        6.5928471603
 Cd        -2.6321953796       -4.5685798778       -6.0773989300
 Cd        -0.3638438279       -6.1221236347       -3.0620735359
 Cd         1.9882729153       -6.8506852632       -0.0376753302
 Cd         4.3604701588       -7.5063202656        3.0981086138
 Cd        -2.4313710890        8.2839908015       -1.2010761441
 Cd         0.1210964618        6.7915494583        2.0748938605
 Cd         2.2602783261        6.3879934074        5.9824457591
 Cd        -2.2743307721        5.5403016700       -4.1096429978
 Cd         0.1552258413        4.6164378819       -0.9814446932
 Cd         2.6173372932        3.7540356816        2.4616712460
 Cd         4.3934694910        2.5024270436        5.6448470259
 Cd        -2.3839877703        3.0961459608       -7.5397423510
 Cd        -0.1308699873        1.7716472388       -4.3458913396
 Cd         2.1522040622        0.8595996928       -0.9600505658
 Cd         4.3027041934       -0.4425155449        2.5248589789
 Cd         6.4943132815       -0.6514444341        6.0110723312
 Cd         0.4032906214       -0.5920449882       -7.0625722312
 Cd         2.1504065746       -1.8410095193       -3.9631978812
 Cd         4.1282053355       -2.9764966895       -0.5499119195
 Cd         6.9189885741       -3.8001688729        2.8840486736
 Cd         1.0693858855       -4.7693596381       -6.7909688629
 Cd         3.6529341800       -5.7620820022       -3.6150795142
 Cd         5.7341856059       -6.5625995016       -0.3323817960
 Cd         2.4532379782        8.1225833618       -1.1556872380
 Cd         4.4025673150        7.2904811152        1.7928276254
 Cd         2.3800547108        5.2453457502       -4.8107637235
 Cd         4.8184663347        4.7191125514       -1.4277792117
 Cd         6.7589411702        3.8390778732        2.0295448973
 Cd         2.6210634084        2.7844913241       -7.7035228004
 Cd         4.8495943395        1.7843685348       -4.5225056138
 Cd         6.7261500983        1.0662237140       -0.9642295531
 Cd         8.8881450478        0.4141445330        2.4369093904
 Cd         4.3615782352       -0.9213178924       -7.7328888960
 Cd         6.7438649008       -1.9767569930       -4.2031112584
 Cd         8.5272445020       -2.6218905711       -0.2551455218
 Se        -9.0557725106        0.2424574140        0.9180313808
 Se        -6.3745872764       -0.6570220647        4.4225742627
 Se        -3.9358548519       -1.3506397678        8.2925868769
 Se        -6.5830028390       -3.7408669090        1.3890860046
 Se        -4.5802302415       -4.2716541219        4.8585926421
 Se        -4.6110671623       -7.7792240778        1.5343213278
 Se        -6.6407812351        3.9866809498        0.4586064126
 Se        -4.0705866514        2.6241591830        3.9150270775
 Se        -1.6315747320        2.0143859544        7.9219454430
 Se        -6.7106235468        0.9827493806       -3.1628202938
 Se        -4.4077684895       -0.2106461950        0.3970531668
 Se        -2.0534879979       -1.1190641497        4.2604482105
 Se         0.4069246601       -1.5676855049        8.0617057342
 Se        -4.4126107232       -3.1307459794       -2.8028288282
 Se        -2.2371864822       -4.0884616040        0.9473336128
 Se         0.1541797359       -4.8148952714        4.4843326207
 Se        -2.4147106009       -7.4199706225       -2.0529393442
 Se        -0.0662571417       -7.8800811154        1.3078284855
 Se        -4.5519687636        7.5920037884       -0.0122560791
 Se        -1.8482840651        6.3647212661        3.5390459072
 Se         0.4006735392        5.8241498358        7.5878867146
 Se        -4.4655945585        4.5529209660       -3.3484418515
 Se        -2.0798083538        3.7153034916        0.3451575142
 Se         0.4973892782        2.6967113851        3.7286137790
 Se         2.7724753484        1.9958260876        7.6298945277
 Se        -4.6126224962        2.0736182894       -6.9031574659
 Se        -2.2770211290        0.8531533747       -3.1284312065
 Se         0.0138865169       -0.1636477002        0.3858468104
 Se         2.3115473387       -1.3198431962        4.0017354986
 Se         4.8624545925       -1.8855864388        7.7371297607
 Se        -2.0700877949       -1.9675257511       -6.4603372509
 Se        -0.0447057629       -3.1582708631       -2.8090856920
 Se         2.2343306950       -4.2299664240        0.7817840723
 Se         4.8342987615       -4.9516929708        4.0974643468
 Se        -0.7556003326       -6.2829108386       -5.8406699955
 Se         1.9243057511       -7.4784768035       -2.6074198353
 Se         4.2543989663       -8.3809591814        0.7363809319
 Se         0.0386925703        7.3677075300       -0.4939635450
 Se         2.3791568525        6.5289221229        3.1400383851
 Se         0.0465974103        4.4270318221       -3.5936563407
 Se         2.5167269427        3.6273521599       -0.0581806204
 Se         4.7705604635        2.4670139639        3.1233546104
 Se         0.0435933033        1.9323944164       -6.9695738842
 Se         2.2733127965        0.7623703678       -3.6584263160
 Se         4.3816175435       -0.2841549253       -0.0177063702
 Se         6.9670500347       -1.1290204494        3.5565582379
 Se         2.2410869402       -2.2702007814       -6.6798205275
 Se         4.3723294721       -3.1971869108       -3.2130677403
 Se         6.4331938555       -4.1098532443        0.4136420186
 Se         4.8503033307        7.5509093293       -0.7463548497
 Se         4.8776288797        4.5477652435       -4.0091414448
 Se         7.0830986217        3.5950723552       -0.6434567968
 Se         4.7810064642        1.5273410534       -7.5566303287
 Se         6.9188050062        0.6130038217       -3.7081238627
 Se         9.1066871843       -0.0609359671       -0.0919647969
  C         6.9955771113       -6.9586634775       -2.8583426301
  H         7.7780160969       -7.1271873265       -3.6573399650
  O         5.8389952916       -6.4652991204       -3.1445809228
  O         7.2920676004       -7.2683568805       -1.6893132711
  C         3.3939431960       -6.2668607509       -6.9513074648
  H         4.3245440932       -6.8689211647       -7.0591687882
  O         3.0202466073       -5.7860511295       -5.7843136273
  O         2.6220129789       -6.1746538788       -7.9242101403
  C         6.3116555909       -2.9071154185       -7.4921130606
  H         7.0978863851       -3.7212906458       -7.4285512081
  O         6.0096715894       -2.3219711192       -6.3505932827
  O         5.9403243477       -2.4750431756       -8.6116316973
  C         8.9837561036       -3.3697375837       -3.4349055328
  H         9.9249943929       -3.8864043165       -3.1840078659
  O         8.5659407989       -3.4209184445       -4.6048832464
  O         8.2714489672       -2.6971151254       -2.5207012617
  C         9.7902109758       -4.6282247391        2.1768529346
  H        10.6284324694       -5.3337138149        2.3552924638
  O         9.7484501532       -4.1824896055        0.9942458601
  O         9.0219926648       -4.5705851174        3.1873629795
  C        -2.8252708508       -8.8894178348        5.3653894160
  H        -2.3915771747       -9.8892286280        5.4446685031
  O        -1.9808601030       -7.9304545651        5.0436955975
  O        -4.0908415257       -8.7280019527        5.4030844137
  C         3.0047406823       -8.6887063298        5.2919739424
  H         2.6853413808       -9.0312323512        6.2714246943
  O         1.9985977812       -8.3553887881        4.5599054594
  O         4.2197147413       -8.6069092298        4.9235206312
  C         2.8732291572       -5.7090624943        8.2322507888
  H         2.4095730423       -6.3582442170        8.9295273658
  O         2.2236878889       -4.8031284854        7.6183804854
  O         4.1525405945       -5.8988692439        8.1468427445
  C        -2.5324052264       -5.9090323801        8.5168983878
  H        -2.0058427467       -6.7599986745        9.0204193621
  O        -1.9189018681       -5.2527647032        7.5983339134
  O        -3.6521974131       -5.4981014961        8.8936623702
  C        -6.8661340661        2.3082426882        7.3884767521
  H        -7.2433530482        3.2983326111        7.3747512577
  O        -5.6189307919        2.1553364867        7.5292857639
  O        -7.6694328727        1.3672322100        7.2032576312
  C        -4.1128935570        6.2776012356        7.2258109093
  H        -5.2184092536        6.2949225170        7.4003980339
  O        -3.5215502414        5.2331222329        6.7794929280
  O        -3.5956064510        7.4679880815        7.3184340370
  C        -6.2584500423        7.1467273309        4.0778865765
  H        -7.2018864753        7.1620259062        4.6862261037
  O        -5.8042352338        6.0508881806        3.6277903665
  O        -5.6141473350        8.2227071687        3.8530055117
  C        -9.2670155991        2.9624473135        4.4549609073
  H        -9.7760873251        3.8307467380        4.7753730710
  O        -8.0580447847        3.0137717908        4.1153681461
  O       -10.0869615960        1.9755230626        4.3964141791
  C        -9.5997958208       -3.5202239981        4.2555074891
  H       -10.6284324694       -3.6062117458        4.7363993397
  O        -9.3836198173       -2.7271085544        3.2939504316
  O        -8.6749593009       -4.3055307223        4.7674147240
  C        -5.4063829718       -6.0836320759       -6.1576393485
  H        -6.0390997038       -6.5934387315       -6.8768176703
  O        -5.3157147411       -6.5042627408       -4.9638375967
  O        -4.7997118332       -5.0931497246       -6.6842330004
  C        -7.4812021438       -7.2683192216       -1.8337008205
  H        -7.8430239833       -7.7214409635       -2.7403108931
  O        -6.3847231004       -6.5596142310       -1.8855223803
  O        -8.0870004405       -7.4369608581       -0.7449951352
  C        -9.2637717352       -3.4248031045       -2.1287629167
  H        -9.5435102925       -4.0726156799       -2.9624854104
  O        -8.1685743898       -2.7562864935       -2.2769679175
  O        -9.8293124780       -3.4993302663       -1.0042472880
  C        -6.7198117275       -1.5155721631       -7.0057360974
  H        -7.7266400310       -1.9701098143       -7.1795729881
  O        -6.3208037730       -1.2812141421       -5.7891801227
  O        -6.0546670581       -1.2647410752       -8.0219575549
  C        -1.9610306020        5.6962737072       -7.4797868569
  H        -1.8068881661        6.7616764611       -7.4798700689
  O        -2.4613788677        5.1953402046       -6.4147373301
  O        -1.7592038190        5.0404242691       -8.5376948407
  C        -1.7153677193        9.0065729983       -3.7807068554
  H        -1.3518565997        9.2891789052       -4.8285272378
  O        -1.7735635219        7.7204009534       -3.5311974415
  O        -1.9589811591        9.8892286280       -2.9296575010
  C         2.5176986766        8.6527359013       -4.1276241396
  H         2.7356319561        9.0838176512       -5.0545617483
  O         2.0941304229        7.4607563111       -4.0382054964
  O         2.6632020791        9.4136986823       -3.1567247192
  C         1.7405814703        5.3615037054       -8.2026998584
  H         1.4592813282        6.4433815072       -8.3446733349
  O         2.2712544771        5.0744229803       -7.0359036782
  O         1.5374971892        4.4786315137       -9.0204193621
  C         9.4791869119        2.6134878200        3.9079418032
  H         9.6264681644        3.4611325178        4.5867541287
  O         8.5294682966        2.7206869475        3.0468687327
  O        10.1884170796        1.5361363159        4.0354546634
  C         6.6320899766        7.0427804887        3.3240585285
  H         7.5183451153        7.1103565644        4.0025867163
  O         6.4921259472        6.1579139584        2.4473334656
  O         5.8014508194        7.8970951585        3.5804466065
  C         4.7468288793        5.8510846562        6.9391041765
  H         5.6837062732        5.7110173508        7.4566454645
  O         4.3315486404        4.9881730889        6.0840680113
  O         4.1390624477        6.9214380767        7.1338855679
  C         7.5642974957        1.7429307679        7.1823006621
  H         8.1116275708        2.6102062210        7.6466333920
  O         6.7423080014        2.0330978891        6.2208765696
  O         7.8434776238        0.5800715711        7.5931108165
     227
 i =        1, time =        1.000, E =        -2.7342586432
 Cd        -8.6193136056        0.4795837857        3.4772674259
 Cd        -5.8717559867       -0.2571380801        7.1143046670
 Cd        -8.4082321012       -2.1542649830        0.3851441665
 Cd        -6.8926477933       -3.2916923207        3.9611137679
 Cd        -3.6901953422       -3.7005158413        7.3822687400
 Cd        -6.4420379838       -6.2357173518        0.4643011831
 Cd        -4.3123215492       -6.8295553681        3.9053888930
 Cd        -6.1164571382        3.8609142342        2.9057736568
 Cd        -3.6067562918        2.8812833270        6.5902761159
 Cd        -6.7534137290        1.1872636630       -0.3192321821
 Cd        -4.0444933956        0.0755157607        3.0501340207
 Cd        -1.7741918810       -0.3127185611        6.8335048954
 Cd        -6.3661377439       -1.4627436315       -3.4401695011
 Cd        -4.3614849024       -3.1217037029       -0.1745141353
 Cd        -2.2425868941       -3.6217333523        3.6335850546
 Cd         0.1785540671       -3.9616566635        7.0369340568
 Cd        -4.2694824918       -5.9880237311       -2.9988683586
 Cd        -2.2489067348       -6.7965133816        0.6790960209
 Cd         0.0677107085       -7.3031307274        3.8542959268
 Cd        -4.0801217130        7.4118986295        2.4184873534
 Cd        -1.6109299763        6.4880891397        6.2508159781
 Cd        -4.3325112097        4.8128637248       -0.6769243643
 Cd        -1.8303893490        3.6696709303        3.1588651498
 Cd         0.4898114705        3.1633852489        6.7204169780
 Cd        -4.5994089410        2.0001307559       -4.0891551259
 Cd        -2.1629505646        1.0182287415       -0.4517359147
 Cd         0.1384074078       -0.0680798039        3.1343803787
 Cd         2.6424378113       -0.6635223727        6.8957778839
 Cd        -4.1540916138       -0.5351163009       -6.9611211794
 Cd        -2.2032050082       -1.8490152176       -3.4901185166
 Cd         0.0357890962       -2.8474919122       -0.0251073846
 Cd         2.4397580992       -3.8217345527        3.5304088849
 Cd         4.5938415154       -4.2152289489        6.5946904013
 Cd        -2.6318043628       -4.5698774105       -6.0785066243
 Cd        -0.3609184832       -6.1209060201       -3.0631572920
 Cd         1.9864822717       -6.8522943585       -0.0374143015
 Cd         4.3579057173       -7.5047490250        3.0973009078
 Cd        -2.4318984302        8.2868230059       -1.2004363666
 Cd         0.1211431467        6.7912149944        2.0745589473
 Cd         2.2581496133        6.3879995389        5.9823572914
 Cd        -2.2739264262        5.5406506808       -4.1121833850
 Cd         0.1544498012        4.6148767535       -0.9822332643
 Cd         2.6164542739        3.7535028949        2.4612453177
 Cd         4.3939549216        2.5015442559        5.6448161177
 Cd        -2.3863178508        3.0936301502       -7.5399676586
 Cd        -0.1312479669        1.7709357063       -4.3473755348
 Cd         2.1531195220        0.8601058657       -0.9631935534
 Cd         4.3035752632       -0.4402282664        2.5249973556
 Cd         6.4920148211       -0.6517026839        6.0106451773
 Cd         0.4040708386       -0.5928151585       -7.0622154989
 Cd         2.1512476880       -1.8411864748       -3.9633190857
 Cd         4.1300009310       -2.9779671343       -0.5482418819
 Cd         6.9198079140       -3.7968923351        2.8857378956
 Cd         1.0695919954       -4.7690063690       -6.7907812211
 Cd         3.6506584551       -5.7624835430       -3.6176269026
 Cd         5.7328153712       -6.5638761337       -0.3327096371
 Cd         2.4549096044        8.1224105367       -1.1566533903
 Cd         4.4054294664        7.2898634019        1.7947900205
 Cd         2.3804006544        5.2451844191       -4.8085867237
 Cd         4.8188507842        4.7185287915       -1.4282360957
 Cd         6.7582567444        3.8402225728        2.0311216635
 Cd         2.6215703707        2.7829852652       -7.7033975585
 Cd         4.8490623355        1.7847920334       -4.5232655897
 Cd         6.7276357098        1.0648192183       -0.9631040707
 Cd         8.8867605312        0.4155573288        2.4348894375
 Cd         4.3617326307       -0.9229018456       -7.7309862667
 Cd         6.7427135882       -1.9756459748       -4.2012153293
 Cd         8.5291835499       -2.6208063156       -0.2527272196
 Se        -9.0551479890        0.2432729298        0.9181201419
 Se        -6.3728300371       -0.6564307224        4.4183913042
 Se        -3.9343627350       -1.3488383796        8.2971253748
 Se        -6.5830846347       -3.7426473198        1.3879214254
 Se        -4.5790842641       -4.2750845326        4.8599490638
 Se        -4.6123207529       -7.7770775476        1.5327165612
 Se        -6.6426580563        3.9855780181        0.4572523174
 Se        -4.0720491784        2.6208010999        3.9145012480
 Se        -1.6331067465        2.0119775856        7.9256911736
 Se        -6.7123489632        0.9833089004       -3.1652641149
 Se        -4.4072089658       -0.2112711624        0.3948271338
 Se        -2.0530052049       -1.1152136485        4.2595320987
 Se         0.4059555203       -1.5661072752        8.0654369360
 Se        -4.4161687609       -3.1302656681       -2.8048801367
 Se        -2.2372603376       -4.0916270619        0.9472456653
 Se         0.1529427843       -4.8126655903        4.4859112199
 Se        -2.4165126158       -7.4211301911       -2.0538648314
 Se        -0.0666778462       -7.8796661841        1.3095835588
 Se        -4.5527038866        7.5949552948       -0.0129989288
 Se        -1.8471582804        6.3634268507        3.5404460312
 Se         0.4037757240        5.8260844158        7.5866015505
 Se        -4.4665327366        4.5541049060       -3.3489665014
 Se        -2.0809597100        3.7151968057        0.3431749369
 Se         0.4983728776        2.6968372824        3.7289250159
 Se         2.7718247834        1.9959077838        7.6266056936
 Se        -4.6136918028        2.0748470197       -6.9049917727
 Se        -2.2790000793        0.8534907011       -3.1261590274
 Se         0.0146911022       -0.1632642665        0.3854671058
 Se         2.3130018696       -1.3186313186        3.9993278693
 Se         4.8633093315       -1.8842584065        7.7358301611
 Se        -2.0699712274       -1.9664804991       -6.4604695033
 Se        -0.0445236814       -3.1601357855       -2.8087770827
 Se         2.2322474133       -4.2315654163        0.7809880568
 Se         4.8363049972       -4.9533319268        4.0967489910
 Se        -0.7551850261       -6.2854339695       -5.8414128455
 Se         1.9250268639       -7.4794407824       -2.6078188391
 Se         4.2592868515       -8.3797783616        0.7361516500
 Se         0.0355282048        7.3687754514       -0.4914344571
 Se         2.3811149095        6.5252034058        3.1429345648
 Se         0.0438687184        4.4288391719       -3.5941731060
 Se         2.5164396983        3.6274131026       -0.0573456150
 Se         4.7729411374        2.4659645249        3.1252086648
 Se         0.0454684512        1.9302951569       -6.9708507824
 Se         2.2760125540        0.7650235809       -3.6571110493
 Se         4.3768294679       -0.2853498415       -0.0181324460
 Se         6.9677913115       -1.1295156801        3.5580153458
 Se         2.2373057476       -2.2685356455       -6.6839102445
 Se         4.3739162420       -3.1974824371       -3.2157623809
 Se         6.4330878343       -4.1117767021        0.4126098947
 Se         4.8522186571        7.5524549605       -0.7461474164
 Se         4.8776413548        4.5490849947       -4.0126395014
 Se         7.0859850834        3.5938018467       -0.6428858221
 Se         4.7823249357        1.5267633549       -7.5555685578
 Se         6.9190827002        0.6111947970       -3.7073590307
 Se         9.1072168891       -0.0625685392       -0.0926050719
  C         6.9966758974       -6.9498266155       -2.8612701735
  H         7.7649322095       -7.1224747738       -3.6684216540
  O         5.8450124094       -6.4677118899       -3.1399603991
  O         7.2903907846       -7.2749968042       -1.6952575153
  C         3.3950717683       -6.2672988581       -6.9491737437
  H         4.3444066225       -6.8936096686       -7.0753272229
  O         3.0190054775       -5.7912615528       -5.7833675414
  O         2.6182523541       -6.1693774320       -7.9243760385
  C         6.3106276857       -2.9078551562       -7.4910405065
  H         7.1299137504       -3.7048862282       -7.4466889051
  O         6.0084669737       -2.3185220244       -6.3486580467
  O         5.9398760207       -2.4747431475       -8.6127505856
  C         8.9774375299       -3.3708834354       -3.4296435269
  H         9.9250180562       -3.8774829974       -3.1826003730
  O         8.5689446958       -3.4154070523       -4.6047607638
  O         8.2721532646       -2.6971237192       -2.5210540261
  C         9.7980644173       -4.6251968886        2.1809940337
  H        10.6408655401       -5.3318691344        2.3887999993
  O         9.7481270189       -4.1811620691        0.9932118442
  O         9.0301508166       -4.5687020637        3.1873104739
  C        -2.8217270518       -8.8884275427        5.3598598018
  H        -2.4154187803       -9.9024293192        5.4343946394
  O        -1.9851762639       -7.9308687906        5.0426343134
  O        -4.0903981601       -8.7278865648        5.4048047258
  C         2.9969190474       -8.6916113602        5.2874283617
  H         2.6967725338       -9.0398269484        6.2934215078
  O         2.0003469955       -8.3584551862        4.5598618121
  O         4.2231207970       -8.6024438415        4.9184700399
  C         2.8792987011       -5.7053277098        8.2324192211
  H         2.3955873073       -6.3773024893        8.9303283437
  O         2.2201107400       -4.8095056499        7.6168203929
  O         4.1496278186       -5.9042488248        8.1542923324
  C        -2.5347106425       -5.9173491316        8.5219939631
  H        -2.0052498086       -6.7390725628        9.0096019785
  O        -1.9210863300       -5.2590872627        7.5986042291
  O        -3.6522184251       -5.5091317210        8.8933581009
  C        -6.8630658186        2.3027076877        7.3891922908
  H        -7.2086193538        3.3071349018        7.3885257928
  O        -5.6221994270        2.1593200015        7.5342199690
  O        -7.6700349699        1.3707467057        7.2000844461
  C        -4.1169999035        6.2827978006        7.2281816510
  H        -5.2418933127        6.2896177269        7.3832000201
  O        -3.5275090096        5.2294526811        6.7742007588
  O        -3.5914829622        7.4675229461        7.3182640938
  C        -6.2567382121        7.1462347691        4.0780962964
  H        -7.2111390447        7.1649409639        4.6689854642
  O        -5.8092209659        6.0487718168        3.6284636788
  O        -5.6139113747        8.2213229471        3.8498139944
  C        -9.2742099826        2.9617511017        4.4604803668
  H        -9.7855372140        3.8838940690        4.7760086716
  O        -8.0592841164        3.0118782450        4.1196195027
  O       -10.0819748177        1.9801719385        4.3927782440
  C        -9.6032727502       -3.5282162780        4.2551628700
  H       -10.5971720209       -3.6001750875        4.7566807035
  O        -9.3837260207       -2.7227872408        3.2944104226
  O        -8.6804970588       -4.3027450889        4.7638507191
  C        -5.4081383983       -6.0792273393       -6.1561875095
  H        -6.0546960796       -6.5859836395       -6.8890942905
  O        -5.3116767614       -6.5044072213       -4.9664096018
  O        -4.7995266886       -5.0930229490       -6.6856147620
  C        -7.4874895131       -7.2705627355       -1.8347959251
  H        -7.8388434959       -7.7173330376       -2.7530342297
  O        -6.3892069951       -6.5552204907       -1.8849153572
  O        -8.0722794707       -7.4413260031       -0.7462653914
  C        -9.2562687261       -3.4270016901       -2.1219728191
  H        -9.5270787848       -4.0663584857       -2.9594189931
  O        -8.1701897768       -2.7556329163       -2.2726246618
  O        -9.8246449897       -3.4943560711       -1.0096314928
  C        -6.7207061950       -1.5101505488       -7.0045939087
  H        -7.7450574417       -1.9674181007       -7.1698505571
  O        -6.3200212864       -1.2783676799       -5.8000518648
  O        -6.0644004226       -1.2639592992       -8.0161264512
  C        -1.9629019881        5.6954888554       -7.4853119335
  H        -1.7770888886        6.7764005651       -7.4923242406
  O        -2.4612196865        5.1873677935       -6.4094892460
  O        -1.7560213566        5.0417283691       -8.5290173815
  C        -1.7168877869        9.0075032545       -3.7839145661
  H        -1.3493405476        9.2660238074       -4.8465614694
  O        -1.7698576378        7.7206325485       -3.5249356171
  O        -1.9636390327        9.8900375084       -2.9413364530
  C         2.5062355876        8.6538826063       -4.1272907079
  H         2.7131102182        9.0638249498       -5.0476060874
  O         2.0944143255        7.4541896650       -4.0305071785
  O         2.6627507713        9.4116190296       -3.1559310391
  C         1.7411525874        5.3672421818       -8.1968623386
  H         1.4358383610        6.4416008070       -8.3632925476
  O         2.2779947498        5.0771472766       -7.0424499653
  O         1.5310351288        4.4839788122       -9.0180574425
  C         9.4768759726        2.6096268204        3.9000014400
  H         9.6131090334        3.4671477718        4.5843902861
  O         8.5288345093        2.7174884544        3.0498517919
  O        10.1890748135        1.5406142550        4.0337425670
  C         6.6326577846        7.0382999555        3.3282051678
  H         7.5082674956        7.1289998248        4.0070788575
  O         6.4948385549        6.1610136330        2.4469202826
  O         5.7961576822        7.9032883729        3.5820149210
  C         4.7447686405        5.8524808064        6.9353937431
  H         5.7085862008        5.7040540943        7.4370666698
  O         4.3289882055        4.9887757757        6.0816305998
  O         4.1469937534        6.9227800607        7.1379352378
  C         7.5603366186        1.7452811931        7.1878777903
  H         8.1158840311        2.6116602203        7.6593692779
  O         6.7464221933        2.0302639223        6.2246985689
  O         7.8439090471        0.5825172447        7.5899235618
     227
 i =        2, time =        2.000, E =        -2.8050297903
 Cd        -8.6168874368        0.4780856666        3.4771585695
 Cd        -5.8716409432       -0.2574267185        7.1132831299
 Cd        -8.4089297929       -2.1556882483        0.3833183268
 Cd        -6.8893758359       -3.2934741018        3.9622197976