     227
 i =        0, time =        0.000, E =       -11.8354056621
 Cd        -8.6216924880        0.4810107428        3.4775887729
 Cd        -5.8723589632       -0.2566559957        7.1151373767
 Cd        -8.4076147924       -2.1531404527        0.3867588804
 Cd        -6.8957642261       -3.2896665849        3.9600318291
 Cd        -3.6930098048       -3.6992689615        7.3819491709
 Cd        -6.4429261463       -6.2347087238        0.4622469067
 Cd        -4.3123952394       -6.8285875372        3.9039095072
 Cd        -6.1141073353        3.8626235599        2.9066844924
 Cd        -3.6048790416        2.8797284733        6.5917986711
 Cd        -6.7531255596        1.1841266196       -0.3182182747
 Cd        -4.0437606329        0.0729837467        3.0511954168
 Cd        -1.7753257667       -0.3121054857        6.8316599018
 Cd        -6.3661028473       -1.4630135273       -3.4383357626
 Cd        -4.3602814436       -3.1214810613       -0.1759283953
 Cd        -2.2424276819       -3.6242998489        3.6335413818
 Cd         0.1757294635       -3.9625201566        7.0364714760
 Cd        -4.2692200317       -5.9860442556       -3.0005266361
 Cd        -2.2482225396       -6.7972628816        0.6786391664
 Cd         0.0669003827       -7.3030327295        3.8545421700
 Cd        -4.0792754193        7.4105475565        2.4175118797
 Cd        -1.6116442377        6.4880648240        6.2478272306
 Cd        -4.3308002626        4.8127262164       -0.6762739309
 Cd        -1.8326132452        3.6694977750        3.1598212265
 Cd         0.4939817277        3.1637060931        6.7202662426
 Cd        -4.5980154021        1.9988297698       -4.0880170010
 Cd        -2.1651194586        1.0165564496       -0.4536921834
 Cd         0.1376109507       -0.0659106884        3.1336818174
 Cd         2.6419074521       -0.6636939286        6.8958319365
 Cd        -4.1515129292       -0.5348426091       -6.9620217917
 Cd        -2.2012490343       -1.8491984656       -3.4894107829
 Cd         0.0359311218       -2.8494155653       -0.0264680683
 Cd         2.4407298775       -3.8224684908        3.5289587884
 Cd         4.5907434619       -4.2169180472        6.5928471603
 Cd        -2.6321953796       -4.5685798778       -6.0773989300
 Cd        -0.3638438279       -6.1221236347       -3.0620735359
 Cd         1.9882729153       -6.8506852632       -0.0376753302
 Cd         4.3604701588       -7.5063202656        3.0981086138
 Cd        -2.4313710890        8.2839908015       -1.2010761441
 Cd         0.1210964618        6.7915494583        2.0748938605
 Cd         2.2602783261        6.3879934074        5.9824457591
 Cd        -2.2743307721        5.5403016700       -4.1096429978
 Cd         0.1552258413        4.6164378819       -0.9814446932
 Cd         2.6173372932        3.7540356816        2.4616712460
 Cd         4.3934694910        2.5024270436        5.6448470259
 Cd        -2.3839877703        3.0961459608       -7.5397423510
 Cd        -0.1308699873        1.7716472388       -4.3458913396
 Cd         2.1522040622        0.8595996928       -0.9600505658
 Cd         4.3027041934       -0.4425155449        2.5248589789
 Cd         6.4943132815       -0.6514444341        6.0110723312
 Cd         0.4032906214       -0.5920449882       -7.0625722312
 Cd         2.1504065746       -1.8410095193       -3.9631978812
 Cd         4.1282053355       -2.9764966895       -0.5499119195
 Cd         6.9189885741       -3.8001688729        2.8840486736
 Cd         1.0693858855       -4.7693596381       -6.7909688629
 Cd         3.6529341800       -5.7620820022       -3.6150795142
 Cd         5.7341856059       -6.5625995016       -0.3323817960
 Cd         2.4532379782        8.1225833618       -1.1556872380
 Cd         4.4025673150        7.2904811152        1.7928276254
 Cd         2.3800547108        5.2453457502       -4.8107637235
 Cd         4.8184663347        4.7191125514       -1.4277792117
 Cd         6.7589411702        3.8390778732        2.0295448973
 Cd         2.6210634084        2.7844913241       -7.7035228004
 Cd         4.8495943395        1.7843685348       -4.5225056138
 Cd         6.7261500983        1.0662237140       -0.9642295531
 Cd         8.8881450478        0.4141445330        2.4369093904
 Cd         4.3615782352       -0.9213178924       -7.7328888960
 Cd         6.7438649008       -1.9767569930       -4.2031112584
 Cd         8.5272445020       -2.6218905711       -0.2551455218
 Se        -9.0557725106        0.2424574140        0.9180313808
 Se        -6.3745872764       -0.6570220647        4.4225742627
 Se        -3.9358548519       -1.3506397678        8.2925868769
 Se        -6.5830028390       -3.7408669090        1.3890860046
 Se        -4.5802302415       -4.2716541219        4.8585926421
 Se        -4.6110671623       -7.7792240778        1.5343213278
 Se        -6.6407812351        3.9866809498        0.4586064126
 Se        -4.0705866514        2.6241591830        3.9150270775
 Se        -1.6315747320        2.0143859544        7.9219454430
 Se        -6.7106235468        0.9827493806       -3.1628202938
 Se        -4.4077684895       -0.2106461950        0.3970531668
 Se        -2.0534879979       -1.1190641497        4.2604482105
 Se         0.4069246601       -1.5676855049        8.0617057342
 Se        -4.4126107232       -3.1307459794       -2.8028288282
 Se        -2.2371864822       -4.0884616040        0.9473336128
 Se         0.1541797359       -4.8148952714        4.4843326207
 Se        -2.4147106009       -7.4199706225       -2.0529393442
 Se        -0.0662571417       -7.8800811154        1.3078284855
 Se        -4.5519687636        7.5920037884       -0.0122560791
 Se        -1.8482840651        6.3647212661        3.5390459072
 Se         0.4006735392        5.8241498358        7.5878867146
 Se        -4.4655945585        4.5529209660       -3.3484418515
 Se        -2.0798083538        3.7153034916        0.3451575142
 Se         0.4973892782        2.6967113851        3.7286137790
 Se         2.7724753484        1.9958260876        7.6298945277
 Se        -4.6126224962        2.0736182894       -6.9031574659
 Se        -2.2770211290        0.8531533747       -3.1284312065
 Se         0.0138865169       -0.1636477002        0.3858468104
 Se         2.3115473387       -1.3198431962        4.0017354986
 Se         4.8624545925       -1.8855864388        7.7371297607
 Se        -2.0700877949       -1.9675257511       -6.4603372509
 Se        -0.0447057629       -3.1582708631       -2.8090856920
 Se         2.2343306950       -4.2299664240        0.7817840723
 Se         4.8342987615       -4.9516929708        4.0974643468
 Se        -0.7556003326       -6.2829108386       -5.8406699955
 Se         1.9243057511       -7.4784768035       -2.6074198353
 Se         4.2543989663       -8.3809591814        0.7363809319
 Se         0.0386925703        7.3677075300       -0.4939635450
 Se         2.3791568525        6.5289221229        3.1400383851
 Se         0.0465974103        4.4270318221       -3.5936563407
 Se         2.5167269427        3.6273521599       -0.0581806204
 Se         4.7705604635        2.4670139639        3.1233546104
 Se         0.0435933033        1.9323944164       -6.9695738842
 Se         2.2733127965        0.7623703678       -3.6584263160
 Se         4.3816175435       -0.2841549253       -0.0177063702
 Se         6.9670500347       -1.1290204494        3.5565582379
 Se         2.2410869402       -2.2702007814       -6.6798205275
 Se         4.3723294721       -3.1971869108       -3.2130677403
 Se         6.4331938555       -4.1098532443        0.4136420186
 Se         4.8503033307        7.5509093293       -0.7463548497
 Se         4.8776288797        4.5477652435       -4.0091414448
 Se         7.0830986217        3.5950723552       -0.6434567968
 Se         4.7810064642        1.5273410534       -7.5566303287
 Se         6.9188050062        0.6130038217       -3.7081238627
 Se         9.1066871843       -0.0609359671       -0.0919647969
  C         6.9955771113       -6.9586634775       -2.8583426301
  H         7.7780160969       -7.1271873265       -3.6573399650
  O         5.8389952916       -6.4652991204       -3.1445809228
  O         7.2920676004       -7.2683568805       -1.6893132711
  C         3.3939431960       -6.2668607509       -6.9513074648
  H         4.3245440932       -6.8689211647       -7.0591687882
  O         3.0202466073       -5.7860511295       -5.7843136273
  O         2.6220129789       -6.1746538788       -7.9242101403
  C         6.3116555909       -2.9071154185       -7.4921130606
  H         7.0978863851       -3.7212906458       -7.4285512081
  O         6.0096715894       -2.3219711192       -6.3505932827
  O         5.9403243477       -2.4750431756       -8.6116316973
  C         8.9837561036       -3.3697375837       -3.4349055328
  H         9.9249943929       -3.8864043165       -3.1840078659
  O         8.5659407989       -3.4209184445       -4.6048832464
  O         8.2714489672       -2.6971151254       -2.5207012617
  C         9.7902109758       -4.6282247391        2.1768529346
  H        10.6284324694       -5.3337138149        2.3552924638
  O         9.7484501532       -4.1824896055        0.9942458601
  O         9.0219926648       -4.5705851174        3.1873629795
  C        -2.8252708508       -8.8894178348        5.3653894160
  H        -2.3915771747       -9.8892286280        5.4446685031
  O        -1.9808601030       -7.9304545651        5.0436955975
  O        -4.0908415257       -8.7280019527        5.4030844137
  C         3.0047406823       -8.6887063298        5.2919739424
  H         2.6853413808       -9.0312323512        6.2714246943
  O         1.9985977812       -8.3553887881        4.5599054594
  O         4.2197147413       -8.6069092298        4.9235206312
  C         2.8732291572       -5.7090624943        8.2322507888
  H         2.4095730423       -6.3582442170        8.9295273658
  O         2.2236878889       -4.8031284854        7.6183804854
  O         4.1525405945       -5.8988692439        8.1468427445
  C        -2.5324052264       -5.9090323801        8.5168983878
  H        -2.0058427467       -6.7599986745        9.0204193621
  O        -1.9189018681       -5.2527647032        7.5983339134
  O        -3.6521974131       -5.4981014961        8.8936623702
  C        -6.8661340661        2.3082426882        7.3884767521
  H        -7.2433530482        3.2983326111        7.3747512577
  O        -5.6189307919        2.1553364867        7.5292857639
  O        -7.6694328727        1.3672322100        7.2032576312
  C        -4.1128935570        6.2776012356        7.2258109093
  H        -5.2184092536        6.2949225170        7.4003980339
  O        -3.5215502414        5.2331222329        6.7794929280
  O        -3.5956064510        7.4679880815        7.3184340370
  C        -6.2584500423        7.1467273309        4.0778865765
  H        -7.2018864753        7.1620259062        4.6862261037
  O        -5.8042352338        6.0508881806        3.6277903665
  O        -5.6141473350        8.2227071687        3.8530055117
  C        -9.2670155991        2.9624473135        4.4549609073
  H        -9.7760873251        3.8307467380        4.7753730710
  O        -8.0580447847        3.0137717908        4.1153681461
  O       -10.0869615960        1.9755230626        4.3964141791
  C        -9.5997958208       -3.5202239981        4.2555074891
  H       -10.6284324694       -3.6062117458        4.7363993397
  O        -9.3836198173       -2.7271085544        3.2939504316
  O        -8.6749593009       -4.3055307223        4.7674147240
  C        -5.4063829718       -6.0836320759       -6.1576393485
  H        -6.0390997038       -6.5934387315       -6.8768176703
  O        -5.3157147411       -6.5042627408       -4.9638375967
  O        -4.7997118332       -5.0931497246       -6.6842330004
  C        -7.4812021438       -7.2683192216       -1.8337008205
  H        -7.8430239833       -7.7214409635       -2.7403108931
  O        -6.3847231004       -6.5596142310       -1.8855223803
  O        -8.0870004405       -7.4369608581       -0.7449951352
  C        -9.2637717352       -3.4248031045       -2.1287629167
  H        -9.5435102925       -4.0726156799       -2.9624854104
  O        -8.1685743898       -2.7562864935       -2.2769679175
  O        -9.8293124780       -3.4993302663       -1.0042472880
  C        -6.7198117275       -1.5155721631       -7.0057360974
  H        -7.7266400310       -1.9701098143       -7.1795729881
  O        -6.3208037730       -1.2812141421       -5.7891801227
  O        -6.0546670581       -1.2647410752       -8.0219575549
  C        -1.9610306020        5.6962737072       -7.4797868569
  H        -1.8068881661        6.7616764611       -7.4798700689
  O        -2.4613788677        5.1953402046       -6.4147373301
  O        -1.7592038190        5.0404242691       -8.5376948407
  C        -1.7153677193        9.0065729983       -3.7807068554
  H        -1.3518565997        9.2891789052       -4.8285272378
  O        -1.7735635219        7.7204009534       -3.5311974415
  O        -1.9589811591        9.8892286280       -2.9296575010
  C         2.5176986766        8.6527359013       -4.1276241396
  H         2.7356319561        9.0838176512       -5.0545617483
  O         2.0941304229        7.4607563111       -4.0382054964
  O         2.6632020791        9.4136986823       -3.1567247192
  C         1.7405814703        5.3615037054       -8.2026998584
  H         1.4592813282        6.4433815072       -8.3446733349
  O         2.2712544771        5.0744229803       -7.0359036782
  O         1.5374971892        4.4786315137       -9.0204193621
  C         9.4791869119        2.6134878200        3.9079418032
  H         9.6264681644        3.4611325178        4.5867541287
  O         8.5294682966        2.7206869475        3.0468687327
  O        10.1884170796        1.5361363159        4.0354546634
  C         6.6320899766        7.0427804887        3.3240585285
  H         7.5183451153        7.1103565644        4.0025867163
  O         6.4921259472        6.1579139584        2.4473334656
  O         5.8014508194        7.8970951585        3.5804466065
  C         4.7468288793        5.8510846562        6.9391041765
  H         5.6837062732        5.7110173508        7.4566454645
  O         4.3315486404        4.9881730889        6.0840680113
  O         4.1390624477        6.9214380767        7.1338855679
  C         7.5642974957        1.7429307679        7.1823006621
  H         8.1116275708        2.6102062210        7.6466333920
  O         6.7423080014        2.0330978891        6.2208765696
  O         7.8434776238        0.5800715711        7.5931108165
     227
 i =        1, time =        1.000, E =       -11.8445369732
 Cd        -8.6193443923        0.4796438624        3.4771637739
 Cd        -5.8715217613       -0.2572005152        7.1144026747
 Cd        -8.4082175298       -2.1541270360        0.3852397218
 Cd        -6.8927356522       -3.2918144723        3.9610956927
 Cd        -3.6901782433       -3.7003802521        7.3823835701
 Cd        -6.4419702871       -6.2357565217        0.4642761657
 Cd        -4.3123543206       -6.8296212330        3.9052075475
 Cd        -6.1163754814        3.8609292630        2.9055502348
 Cd        -3.6066110144        2.8812241636        6.5904095830
 Cd        -6.7534262259        1.1872325663       -0.3192213954
 Cd        -4.0444101009        0.0755178093        3.0501838176
 Cd        -1.7741882129       -0.3125661546        6.8335774231
 Cd        -6.3660888152       -1.4624183183       -3.4401715863
 Cd        -4.3613419124       -3.1217894259       -0.1745569568
 Cd        -2.2426115227       -3.6215607856        3.6336081765
 Cd         0.1787108396       -3.9615859413        7.0369342523
 Cd        -4.2693614367       -5.9882348881       -2.9988632192
 Cd        -2.2486954759       -6.7966266460        0.6791739089
 Cd         0.0677913256       -7.3029829351        3.8542261943
 Cd        -4.0802963121        7.4119361974        2.4182541723
 Cd        -1.6107721056        6.4879229654        6.2509684743
 Cd        -4.3325274862        4.8128043084       -0.6769504646
 Cd        -1.8303936268        3.6695898843        3.1589465317
 Cd         0.4898043924        3.1633425016        6.7205321396
 Cd        -4.5996359802        2.0001052700       -4.0890023954
 Cd        -2.1628873037        1.0181194726       -0.4517534526
 Cd         0.1384298310       -0.0681730343        3.1344120316
 Cd         2.6424446438       -0.6635630305        6.8959029314
 Cd        -4.1540737020       -0.5351529593       -6.9611296661
 Cd        -2.2031759223       -1.8491043776       -3.4900228774
 Cd         0.0358080784       -2.8474811805       -0.0250975240
 Cd         2.4397100965       -3.8215454702        3.5304680811
 Cd         4.5938391776       -4.2151938285        6.5946763127
 Cd        -2.6316852016       -4.5699810017       -6.0785448504
 Cd        -0.3609699477       -6.1210635263       -3.0631291258
 Cd         1.9864034061       -6.8523446046       -0.0374629003
 Cd         4.3578692192       -7.5050574689        3.0974039783
 Cd        -2.4320608966        8.2867246681       -1.2003494766
 Cd         0.1211452415        6.7911386637        2.0747979477
 Cd         2.2580930844        6.3879359735        5.9826535591
 Cd        -2.2740424499        5.5405406287       -4.1121199726
 Cd         0.1544597355        4.6148631619       -0.9823429909
 Cd         2.6165240295        3.7533494288        2.4610208530
 Cd         4.3939184579        2.5015266734        5.6446899144
 Cd        -2.3864820744        3.0937160817       -7.5398919974
 Cd        -0.1312639227        1.7709187879       -4.3474199071
 Cd         2.1531698272        0.8600191342       -0.9632018870
 Cd         4.3034632902       -0.4402602623        2.5248050784
 Cd         6.4920254294       -0.6517853241        6.0104831303
 Cd         0.4042671984       -0.5927784027       -7.0621292183
 Cd         2.1513126069       -1.8410923560       -3.9633317143
 Cd         4.1299721531       -2.9780228185       -0.5482315046
 Cd         6.9198201551       -3.7969805529        2.8855245613
 Cd         1.0695504811       -4.7692063345       -6.7906697437
 Cd         3.6506251123       -5.7625159782       -3.6177188110
 Cd         5.7329678135       -6.5640278844       -0.3327767573
 Cd         2.4551262491        8.1222957832       -1.1566105051
 Cd         4.4053432681        7.2897913221        1.7948284125
 Cd         2.3804056483        5.2452093540       -4.8087263068
 Cd         4.8189844844        4.7184526059       -1.4284120543
 Cd         6.7582301866        3.8401484981        2.0311423683
 Cd         2.6218056968        2.7829007896       -7.7033773263
 Cd         4.8493517143        1.7846643256       -4.5231264881
 Cd         6.7277193152        1.0650220321       -0.9631084082
 Cd         8.8867416023        0.4155770230        2.4347917376
 Cd         4.3618030612       -0.9226048850       -7.7309215105
 Cd         6.7427765124       -1.9756152756       -4.2012711398
 Cd         8.5291287830       -2.6208028369       -0.2527929229
 Se        -9.0547646626        0.2428657826        0.9183251522
 Se        -6.3727594311       -0.6564916190        4.4183052596
 Se        -3.9345414239       -1.3489488090        8.2965057712
 Se        -6.5831247671       -3.7425284657        1.3880859601
 Se        -4.5790753045       -4.2748328692        4.8597239410
 Se        -4.6122298081       -7.7765652449        1.5328455191
 Se        -6.6422510855        3.9855616420        0.4577205509
 Se        -4.0719577597        2.6208496485        3.9142862229
 Se        -1.6333312287        2.0117323075        7.9250997249
 Se        -6.7116488739        0.9828794357       -3.1654728183
 Se        -4.4070627726       -0.2111855450        0.3948969867
 Se        -2.0531391861       -1.1153528845        4.2593784903
 Se         0.4060038665       -1.5661588337        8.0650616684
 Se        -4.4160677749       -3.1299772210       -2.8046589930
 Se        -2.2374512514       -4.0915861804        0.9472044685
 Se         0.1530635001       -4.8127576054        4.4857974813
 Se        -2.4165682623       -7.4205923733       -2.0539552914
 Se        -0.0669681578       -7.8791143810        1.3095419585
 Se        -4.5521051916        7.5948372074       -0.0125825334
 Se        -1.8467396552        6.3632956895        3.5400576647
 Se         0.4037002682        5.8261686298        7.5858442405
 Se        -4.4660116997        4.5539569269       -3.3489515769
 Se        -2.0809832295        3.7152524652        0.3431755801
 Se         0.4982194318        2.6970120855        3.7286686146
 Se         2.7717944595        1.9958677347        7.6261921673
 Se        -4.6131573495        2.0747664063       -6.9049067736
 Se        -2.2788823083        0.8535205462       -3.1260976761
 Se         0.0145493117       -0.1632208175        0.3853946423
 Se         2.3129703568       -1.3189381647        3.9989948473
 Se         4.8631491275       -1.8843053006        7.7353890839
 Se        -2.0702197337       -1.9664132113       -6.4603751837
 Se        -0.0447338372       -3.1599184177       -2.8087899574
 Se         2.2323297011       -4.2314519376        0.7809343633
 Se         4.8362363907       -4.9530817646        4.0967209844
 Se        -0.7551456394       -6.2847923562       -5.8413941848
 Se         1.9250108259       -7.4790248826       -2.6076188273
 Se         4.2593702688       -8.3791591175        0.7364172221
 Se         0.0356499739        7.3686131261       -0.4913236620
 Se         2.3809062075        6.5252190902        3.1424509574
 Se         0.0437144253        4.4288266340       -3.5939919307
 Se         2.5163833587        3.6274423504       -0.0568145712
 Se         4.7726887000        2.4661943526        3.1253368995
 Se         0.0455237592        1.9299469638       -6.9704906429
 Se         2.2758161017        0.7648269859       -3.6570625456
 Se         4.3766419576       -0.2853693418       -0.0177867759
 Se         6.9677107937       -1.1294347105        3.5582534999
 Se         2.2369785938       -2.2681602438       -6.6837629544
 Se         4.3737231469       -3.1974913654       -3.2156540576
 Se         6.4331559305       -4.1116815845        0.4129920929
 Se         4.8515115245        7.5524176016       -0.7459045304
 Se         4.8774714711        4.5489789200       -4.0122141662
 Se         7.0855738853        3.5934442155       -0.6428942984
 Se         4.7816622434        1.5264079800       -7.5555466791
 Se         6.9185306712        0.6112261037       -3.7073684137
 Se         9.1068553329       -0.0627037397       -0.0923143036
  C         6.9966766584       -6.9498307733       -2.8612699808
  H         7.7649322095       -7.1224747738       -3.6684216540
  O         5.8439419008       -6.4671997273       -3.1400918766
  O         7.2884424233       -7.2740914158       -1.6935322487
  C         3.3950699171       -6.2673011341       -6.9491759939
  H         4.3444066225       -6.8936096686       -7.0753272229
  O         3.0188181244       -5.7908611656       -5.7819257967
  O         2.6176782813       -6.1688786935       -7.9239612364
  C         6.3106277661       -2.9078537612       -7.4910451767
  H         7.1299137504       -3.7048862282       -7.4466889051
  O         6.0085388672       -2.3181705140       -6.3473775717
  O         5.9393257282       -2.4742090639       -8.6124486600
  C         8.9774408668       -3.3708825946       -3.4296451620
  H         9.9250180562       -3.8774829974       -3.1826003730
  O         8.5682289353       -3.4148388866       -4.6046073484
  O         8.2717016965       -2.6966709829       -2.5199956636
  C         9.7980675721       -4.6251981265        2.1809952851
  H        10.6408655401       -5.3318691344        2.3887999993
  O         9.7470372495       -4.1804625495        0.9925622937
  O         9.0285064738       -4.5680928581        3.1870294217
  C        -2.8217283098       -8.8884308441        5.3598597801
  H        -2.4154187803       -9.9024293192        5.4343946394
  O        -1.9847186838       -7.9306319840        5.0423102892
  O        -4.0904646494       -8.7274034166        5.4043907711
  C         2.9969199184       -8.6916148424        5.2874278224
  H         2.6967725338       -9.0398269484        6.2934215078
  O         1.9992871588       -8.3578335680        4.5593992363
  O         4.2233795670       -8.6004998826        4.9153591630
  C         2.8793004579       -5.7053274814        8.2324219154
  H         2.3955873073       -6.3773024893        8.9303283437
  O         2.2189268336       -4.8087997913        7.6163157613
  O         4.1498462380       -5.9034334590        8.1535537115
  C        -2.5347114547       -5.9173487347        8.5219979782
  H        -2.0052498086       -6.7390725628        9.0096019785
  O        -1.9214219825       -5.2582955965        7.5983192315
  O        -3.6522428290       -5.5083667301        8.8927245957
  C        -6.8630665051        2.3027071482        7.3891968703
  H        -7.2086193538        3.3071349018        7.3885257928
  O        -5.6212602425        2.1590964465        7.5336715480
  O        -7.6695152206        1.3702327474        7.1999428862
  C        -4.1169988172        6.2827998615        7.2281848296
  H        -5.2418933127        6.2896177269        7.3832000201
  O        -3.5266325779        5.2290213236        6.7738112334
  O        -3.5910536969        7.4673159201        7.3180354495
  C        -6.2567397777        7.1462375983        4.0780951193
  H        -7.2111390447        7.1649409639        4.6689854642
  O        -5.8090329464        6.0478178241        3.6278458540
  O        -5.6127025105        8.2206893126        3.8486688090
  C        -9.2742135509        2.9617531110        4.4604792779
  H        -9.7855372140        3.8838940690        4.7760086716
  O        -8.0587974404        3.0119014327        4.1192594246
  O       -10.0810516460        1.9792176452        4.3921680771
  C        -9.6032751921       -3.5282176588        4.2551643212
  H       -10.5971720209       -3.6001750875        4.7566807035
  O        -9.3832479739       -2.7227872196        3.2942627226
  O        -8.6785178901       -4.3016340185        4.7629437185
  C        -5.4081383493       -6.0792297125       -6.1561900437
  H        -6.0546960796       -6.5859836395       -6.8890942905
  O        -5.3110020634       -6.5040689499       -4.9651419456
  O        -4.7983492923       -5.0927291089       -6.6852891059
  C        -7.4874910477       -7.2705665475       -1.8347952797
  H        -7.8388434959       -7.7173330376       -2.7530342297
  O        -6.3887215321       -6.5549716446       -1.8842663802
  O        -8.0716561089       -7.4408843974       -0.7458043921
  C        -9.2562722155       -3.4270003725       -2.1219739384
  H        -9.5270787848       -4.0663584857       -2.9594189931
  O        -8.1698048330       -2.7553927359       -2.2727073800
  O        -9.8241950999       -3.4939446971       -1.0091858107
  C        -6.7207076004       -1.5101482784       -7.0045964195
  H        -7.7450574417       -1.9674181007       -7.1698505571
  O        -6.3198102119       -1.2781073570       -5.7989716466
  O        -6.0632523369       -1.2634487423       -8.0154857147
  C        -1.9629045742        5.6954894485       -7.4853143688
  H        -1.7770888886        6.7764005651       -7.4923242406
  O        -2.4611736205        5.1866842017       -6.4086812529
  O        -1.7564232938        5.0403563762       -8.5283208415
  C        -1.7168903337        9.0075060878       -3.7839142903
  H        -1.3493405476        9.2660238074       -4.8465614694
  O        -1.7700682149        7.7194260639       -3.5246039904
  O        -1.9637606245        9.8895516402       -2.9408090233
  C         2.5062378103        8.6538850642       -4.1272906587
  H         2.7131102182        9.0638249498       -5.0476060874
  O         2.0944621365        7.4531966135       -4.0307285162
  O         2.6627493498        9.4111434074       -3.1552021586
  C         1.7411555917        5.3672425131       -8.1968646942
  H         1.4358383610        6.4416008070       -8.3632925476
  O         2.2781628318        5.0765711368       -7.0406455079
  O         1.5312610692        4.4833192722       -9.0175473668
  C         9.4768802893        2.6096273220        3.9000002567
  H         9.6131090334        3.4671477718        4.5843902861
  O         8.5279631505        2.7173487134        3.0491552856
  O        10.1885147552        1.5401250092        4.0330613806
  C         6.6326593846        7.0383032282        3.3282037774
  H         7.5082674956        7.1289998248        4.0070788575
  O         6.4944607369        6.1603905360        2.4465489483
  O         5.7954476093        7.9029912882        3.5812507210
  C         4.7447677160        5.8524822586        6.9353969411
  H         5.7085862008        5.7040540943        7.4370666698
  O         4.3285641463        4.9885364867        6.0815153305
  O         4.1456073115        6.9223911841        7.1371282497
  C         7.5603373849        1.7452810344        7.1878814399
  H         8.1158840311        2.6116602203        7.6593692779
  O         6.7458377496        2.0302347930        6.2244413047
  O         7.8434872949        0.5821301428        7.5894977295
     227
 i =        2, time =        2.000, E =       -11.8593156611
 Cd        -8.6170048224        0.4783238212        3.4767427538
 Cd        -5.8707085697       -0.2576771629        7.1136744050
 Cd        -8.4088735972       -2.1551446174        0.3836939423
 Cd        -6.8897175261       -3.2939570057        3.9621455292