     227
 i =        0, time =        0.000, E =       -10.1884667145
 Cd        -8.6216924880        0.4810107428        3.4775887729
 Cd        -5.8723589632       -0.2566559957        7.1151373767
 Cd        -8.4076147924       -2.1531404527        0.3867588804
 Cd        -6.8957642261       -3.2896665849        3.9600318291
 Cd        -3.6930098048       -3.6992689615        7.3819491709
 Cd        -6.4429261463       -6.2347087238        0.4622469067
 Cd        -4.3123952394       -6.8285875372        3.9039095072
 Cd        -6.1141073353        3.8626235599        2.9066844924
 Cd        -3.6048790416        2.8797284733        6.5917986711
 Cd        -6.7531255596        1.1841266196       -0.3182182747
 Cd        -4.0437606329        0.0729837467        3.0511954168
 Cd        -1.7753257667       -0.3121054857        6.8316599018
 Cd        -6.3661028473       -1.4630135273       -3.4383357626
 Cd        -4.3602814436       -3.1214810613       -0.1759283953
 Cd        -2.2424276819       -3.6242998489        3.6335413818
 Cd         0.1757294635       -3.9625201566        7.0364714760
 Cd        -4.2692200317       -5.9860442556       -3.0005266361
 Cd        -2.2482225396       -6.7972628816        0.6786391664
 Cd         0.0669003827       -7.3030327295        3.8545421700
 Cd        -4.0792754193        7.4105475565        2.4175118797
 Cd        -1.6116442377        6.4880648240        6.2478272306
 Cd        -4.3308002626        4.8127262164       -0.6762739309
 Cd        -1.8326132452        3.6694977750        3.1598212265
 Cd         0.4939817277        3.1637060931        6.7202662426
 Cd        -4.5980154021        1.9988297698       -4.0880170010
 Cd        -2.1651194586        1.0165564496       -0.4536921834
 Cd         0.1376109507       -0.0659106884        3.1336818174
 Cd         2.6419074521       -0.6636939286        6.8958319365
 Cd        -4.1515129292       -0.5348426091       -6.9620217917
 Cd        -2.2012490343       -1.8491984656       -3.4894107829
 Cd         0.0359311218       -2.8494155653       -0.0264680683
 Cd         2.4407298775       -3.8224684908        3.5289587884
 Cd         4.5907434619       -4.2169180472        6.5928471603
 Cd        -2.6321953796       -4.5685798778       -6.0773989300
 Cd        -0.3638438279       -6.1221236347       -3.0620735359
 Cd         1.9882729153       -6.8506852632       -0.0376753302
 Cd         4.3604701588       -7.5063202656        3.0981086138
 Cd        -2.4313710890        8.2839908015       -1.2010761441
 Cd         0.1210964618        6.7915494583        2.0748938605
 Cd         2.2602783261        6.3879934074        5.9824457591
 Cd        -2.2743307721        5.5403016700       -4.1096429978
 Cd         0.1552258413        4.6164378819       -0.9814446932
 Cd         2.6173372932        3.7540356816        2.4616712460
 Cd         4.3934694910        2.5024270436        5.6448470259
 Cd        -2.3839877703        3.0961459608       -7.5397423510
 Cd        -0.1308699873        1.7716472388       -4.3458913396
 Cd         2.1522040622        0.8595996928       -0.9600505658
 Cd         4.3027041934       -0.4425155449        2.5248589789
 Cd         6.4943132815       -0.6514444341        6.0110723312
 Cd         0.4032906214       -0.5920449882       -7.0625722312
 Cd         2.1504065746       -1.8410095193       -3.9631978812
 Cd         4.1282053355       -2.9764966895       -0.5499119195
 Cd         6.9189885741       -3.8001688729        2.8840486736
 Cd         1.0693858855       -4.7693596381       -6.7909688629
 Cd         3.6529341800       -5.7620820022       -3.6150795142
 Cd         5.7341856059       -6.5625995016       -0.3323817960
 Cd         2.4532379782        8.1225833618       -1.1556872380
 Cd         4.4025673150        7.2904811152        1.7928276254
 Cd         2.3800547108        5.2453457502       -4.8107637235
 Cd         4.8184663347        4.7191125514       -1.4277792117
 Cd         6.7589411702        3.8390778732        2.0295448973
 Cd         2.6210634084        2.7844913241       -7.7035228004
 Cd         4.8495943395        1.7843685348       -4.5225056138
 Cd         6.7261500983        1.0662237140       -0.9642295531
 Cd         8.8881450478        0.4141445330        2.4369093904
 Cd         4.3615782352       -0.9213178924       -7.7328888960
 Cd         6.7438649008       -1.9767569930       -4.2031112584
 Cd         8.5272445020       -2.6218905711       -0.2551455218
 Se        -9.0557725106        0.2424574140        0.9180313808
 Se        -6.3745872764       -0.6570220647        4.4225742627
 Se        -3.9358548519       -1.3506397678        8.2925868769
 Se        -6.5830028390       -3.7408669090        1.3890860046
 Se        -4.5802302415       -4.2716541219        4.8585926421
 Se        -4.6110671623       -7.7792240778        1.5343213278
 Se        -6.6407812351        3.9866809498        0.4586064126
 Se        -4.0705866514        2.6241591830        3.9150270775
 Se        -1.6315747320        2.0143859544        7.9219454430
 Se        -6.7106235468        0.9827493806       -3.1628202938
 Se        -4.4077684895       -0.2106461950        0.3970531668
 Se        -2.0534879979       -1.1190641497        4.2604482105
 Se         0.4069246601       -1.5676855049        8.0617057342
 Se        -4.4126107232       -3.1307459794       -2.8028288282
 Se        -2.2371864822       -4.0884616040        0.9473336128
 Se         0.1541797359       -4.8148952714        4.4843326207
 Se        -2.4147106009       -7.4199706225       -2.0529393442
 Se        -0.0662571417       -7.8800811154        1.3078284855
 Se        -4.5519687636        7.5920037884       -0.0122560791
 Se        -1.8482840651        6.3647212661        3.5390459072
 Se         0.4006735392        5.8241498358        7.5878867146
 Se        -4.4655945585        4.5529209660       -3.3484418515
 Se        -2.0798083538        3.7153034916        0.3451575142
 Se         0.4973892782        2.6967113851        3.7286137790
 Se         2.7724753484        1.9958260876        7.6298945277
 Se        -4.6126224962        2.0736182894       -6.9031574659
 Se        -2.2770211290        0.8531533747       -3.1284312065
 Se         0.0138865169       -0.1636477002        0.3858468104
 Se         2.3115473387       -1.3198431962        4.0017354986
 Se         4.8624545925       -1.8855864388        7.7371297607
 Se        -2.0700877949       -1.9675257511       -6.4603372509
 Se        -0.0447057629       -3.1582708631       -2.8090856920
 Se         2.2343306950       -4.2299664240        0.7817840723
 Se         4.8342987615       -4.9516929708        4.0974643468
 Se        -0.7556003326       -6.2829108386       -5.8406699955
 Se         1.9243057511       -7.4784768035       -2.6074198353
 Se         4.2543989663       -8.3809591814        0.7363809319
 Se         0.0386925703        7.3677075300       -0.4939635450
 Se         2.3791568525        6.5289221229        3.1400383851
 Se         0.0465974103        4.4270318221       -3.5936563407
 Se         2.5167269427        3.6273521599       -0.0581806204
 Se         4.7705604635        2.4670139639        3.1233546104
 Se         0.0435933033        1.9323944164       -6.9695738842
 Se         2.2733127965        0.7623703678       -3.6584263160
 Se         4.3816175435       -0.2841549253       -0.0177063702
 Se         6.9670500347       -1.1290204494        3.5565582379
 Se         2.2410869402       -2.2702007814       -6.6798205275
 Se         4.3723294721       -3.1971869108       -3.2130677403
 Se         6.4331938555       -4.1098532443        0.4136420186
 Se         4.8503033307        7.5509093293       -0.7463548497
 Se         4.8776288797        4.5477652435       -4.0091414448
 Se         7.0830986217        3.5950723552       -0.6434567968
 Se         4.7810064642        1.5273410534       -7.5566303287
 Se         6.9188050062        0.6130038217       -3.7081238627
 Se         9.1066871843       -0.0609359671       -0.0919647969
  C         6.9955771113       -6.9586634775       -2.8583426301
  H         7.7780160969       -7.1271873265       -3.6573399650
  O         5.8389952916       -6.4652991204       -3.1445809228
  O         7.2920676004       -7.2683568805       -1.6893132711
  C         3.3939431960       -6.2668607509       -6.9513074648
  H         4.3245440932       -6.8689211647       -7.0591687882
  O         3.0202466073       -5.7860511295       -5.7843136273
  O         2.6220129789       -6.1746538788       -7.9242101403
  C         6.3116555909       -2.9071154185       -7.4921130606
  H         7.0978863851       -3.7212906458       -7.4285512081
  O         6.0096715894       -2.3219711192       -6.3505932827
  O         5.9403243477       -2.4750431756       -8.6116316973
  C         8.9837561036       -3.3697375837       -3.4349055328
  H         9.9249943929       -3.8864043165       -3.1840078659
  O         8.5659407989       -3.4209184445       -4.6048832464
  O         8.2714489672       -2.6971151254       -2.5207012617
  C         9.7902109758       -4.6282247391        2.1768529346
  H        10.6284324694       -5.3337138149        2.3552924638
  O         9.7484501532       -4.1824896055        0.9942458601
  O         9.0219926648       -4.5705851174        3.1873629795
  C        -2.8252708508       -8.8894178348        5.3653894160
  H        -2.3915771747       -9.8892286280        5.4446685031
  O        -1.9808601030       -7.9304545651        5.0436955975
  O        -4.0908415257       -8.7280019527        5.4030844137
  C         3.0047406823       -8.6887063298        5.2919739424
  H         2.6853413808       -9.0312323512        6.2714246943
  O         1.9985977812       -8.3553887881        4.5599054594
  O         4.2197147413       -8.6069092298        4.9235206312
  C         2.8732291572       -5.7090624943        8.2322507888
  H         2.4095730423       -6.3582442170        8.9295273658
  O         2.2236878889       -4.8031284854        7.6183804854
  O         4.1525405945       -5.8988692439        8.1468427445
  C        -2.5324052264       -5.9090323801        8.5168983878
  H        -2.0058427467       -6.7599986745        9.0204193621
  O        -1.9189018681       -5.2527647032        7.5983339134
  O        -3.6521974131       -5.4981014961        8.8936623702
  C        -6.8661340661        2.3082426882        7.3884767521
  H        -7.2433530482        3.2983326111        7.3747512577
  O        -5.6189307919        2.1553364867        7.5292857639
  O        -7.6694328727        1.3672322100        7.2032576312
  C        -4.1128935570        6.2776012356        7.2258109093
  H        -5.2184092536        6.2949225170        7.4003980339
  O        -3.5215502414        5.2331222329        6.7794929280
  O        -3.5956064510        7.4679880815        7.3184340370
  C        -6.2584500423        7.1467273309        4.0778865765
  H        -7.2018864753        7.1620259062        4.6862261037
  O        -5.8042352338        6.0508881806        3.6277903665
  O        -5.6141473350        8.2227071687        3.8530055117
  C        -9.2670155991        2.9624473135        4.4549609073
  H        -9.7760873251        3.8307467380        4.7753730710
  O        -8.0580447847        3.0137717908        4.1153681461
  O       -10.0869615960        1.9755230626        4.3964141791
  C        -9.5997958208       -3.5202239981        4.2555074891
  H       -10.6284324694       -3.6062117458        4.7363993397
  O        -9.3836198173       -2.7271085544        3.2939504316
  O        -8.6749593009       -4.3055307223        4.7674147240
  C        -5.4063829718       -6.0836320759       -6.1576393485
  H        -6.0390997038       -6.5934387315       -6.8768176703
  O        -5.3157147411       -6.5042627408       -4.9638375967
  O        -4.7997118332       -5.0931497246       -6.6842330004
  C        -7.4812021438       -7.2683192216       -1.8337008205
  H        -7.8430239833       -7.7214409635       -2.7403108931
  O        -6.3847231004       -6.5596142310       -1.8855223803
  O        -8.0870004405       -7.4369608581       -0.7449951352
  C        -9.2637717352       -3.4248031045       -2.1287629167
  H        -9.5435102925       -4.0726156799       -2.9624854104
  O        -8.1685743898       -2.7562864935       -2.2769679175
  O        -9.8293124780       -3.4993302663       -1.0042472880
  C        -6.7198117275       -1.5155721631       -7.0057360974
  H        -7.7266400310       -1.9701098143       -7.1795729881
  O        -6.3208037730       -1.2812141421       -5.7891801227
  O        -6.0546670581       -1.2647410752       -8.0219575549
  C        -1.9610306020        5.6962737072       -7.4797868569
  H        -1.8068881661        6.7616764611       -7.4798700689
  O        -2.4613788677        5.1953402046       -6.4147373301
  O        -1.7592038190        5.0404242691       -8.5376948407
  C        -1.7153677193        9.0065729983       -3.7807068554
  H        -1.3518565997        9.2891789052       -4.8285272378
  O        -1.7735635219        7.7204009534       -3.5311974415
  O        -1.9589811591        9.8892286280       -2.9296575010
  C         2.5176986766        8.6527359013       -4.1276241396
  H         2.7356319561        9.0838176512       -5.0545617483
  O         2.0941304229        7.4607563111       -4.0382054964
  O         2.6632020791        9.4136986823       -3.1567247192
  C         1.7405814703        5.3615037054       -8.2026998584
  H         1.4592813282        6.4433815072       -8.3446733349
  O         2.2712544771        5.0744229803       -7.0359036782
  O         1.5374971892        4.4786315137       -9.0204193621
  C         9.4791869119        2.6134878200        3.9079418032
  H         9.6264681644        3.4611325178        4.5867541287
  O         8.5294682966        2.7206869475        3.0468687327
  O        10.1884170796        1.5361363159        4.0354546634
  C         6.6320899766        7.0427804887        3.3240585285
  H         7.5183451153        7.1103565644        4.0025867163
  O         6.4921259472        6.1579139584        2.4473334656
  O         5.8014508194        7.8970951585        3.5804466065
  C         4.7468288793        5.8510846562        6.9391041765
  H         5.6837062732        5.7110173508        7.4566454645
  O         4.3315486404        4.9881730889        6.0840680113
  O         4.1390624477        6.9214380767        7.1338855679
  C         7.5642974957        1.7429307679        7.1823006621
  H         8.1116275708        2.6102062210        7.6466333920
  O         6.7423080014        2.0330978891        6.2208765696
  O         7.8434776238        0.5800715711        7.5931108165
     227
 i =        1, time =        1.000, E =       -10.1975162825
 Cd        -8.6193433674        0.4796403700        3.4771647446
 Cd        -5.8715228656       -0.2572037537        7.1144008433
 Cd        -8.4082140579       -2.1541268446        0.3852401198
 Cd        -6.8927338522       -3.2918137074        3.9610964159
 Cd        -3.6901783336       -3.7003787361        7.3823784357
 Cd        -6.4419685763       -6.2357529964        0.4642794021
 Cd        -4.3123543460       -6.8296164010        3.9052073763
 Cd        -6.1163729446        3.8609276515        2.9055505945
 Cd        -3.6066092643        2.8812229280        6.5904041889
 Cd        -6.7534229970        1.1872307079       -0.3192201427
 Cd        -4.0444064561        0.0755174107        3.0501813458
 Cd        -1.7741894295       -0.3125670598        6.8335699220
 Cd        -6.3660852735       -1.4624215142       -3.4401695891
 Cd        -4.3613415609       -3.1217888738       -0.1745574827
 Cd        -2.2426101685       -3.6215620379        3.6336059411
 Cd         0.1787078400       -3.9615853867        7.0369311086
 Cd        -4.2693583807       -5.9882287650       -2.9988620174
 Cd        -2.2486974875       -6.7966212918        0.6791758333
 Cd         0.0677901816       -7.3029811587        3.8542257288
 Cd        -4.0802891050        7.4119363192        2.4182547949
 Cd        -1.6107693963        6.4879249322        6.2509629965
 Cd        -4.3325219987        4.8128035662       -0.6769477058
 Cd        -1.8303909630        3.6695891377        3.1589457575
 Cd         0.4898040522        3.1633451317        6.7205247019
 Cd        -4.5996286366        2.0001019195       -4.0890027288
 Cd        -2.1628844382        1.0181193416       -0.4517514218
 Cd         0.1384285303       -0.0681716850        3.1344086842
 Cd         2.6424454930       -0.6635628603        6.8958948358
 Cd        -4.1540674884       -0.5351523277       -6.9611286303
 Cd        -2.2031741063       -1.8491031085       -3.4900229247
 Cd         0.0358079867       -2.8474766699       -0.0250970491
 Cd         2.4397106598       -3.8215458181        3.5304668509
 Cd         4.5938408499       -4.2151917792        6.5946721074
 Cd        -2.6316834523       -4.5699773761       -6.0785420308
 Cd        -0.3609697976       -6.1210554663       -3.0631271613
 Cd         1.9864049156       -6.8523387556       -0.0374616009
 Cd         4.3578713010       -7.5050511938        3.0974008255
 Cd        -2.4320593656        8.2867246924       -1.2003450534
 Cd         0.1211452151        6.7911374657        2.0747946936
 Cd         2.2580879782        6.3879370411        5.9826457471
 Cd        -2.2740404715        5.5405398691       -4.1121174340
 Cd         0.1544602092        4.6148609512       -0.9823387085
 Cd         2.6165217184        3.7533516261        2.4610234070
 Cd         4.3939148579        2.5015234249        5.6446885529
 Cd        -2.3864789840        3.0937094424       -7.5398932513
 Cd        -0.1312636515        1.7709147845       -4.3474178911
 Cd         2.1531646735        0.8600188321       -0.9631998772
 Cd         4.3034610158       -0.4402617783        2.5248078609
 Cd         6.4920216003       -0.6517873850        6.0104817933
 Cd         0.4042654363       -0.5927781193       -7.0621294939
 Cd         2.1513080203       -1.8410911299       -3.9633293479
 Cd         4.1299677257       -2.9780211918       -0.5482301286
 Cd         6.9198179941       -3.7969792687        2.8855276305
 Cd         1.0695447137       -4.7691992822       -6.7906716902
 Cd         3.6506214752       -5.7625125047       -3.6177148868
 Cd         5.7329623165       -6.5640236191       -0.3327722679
 Cd         2.4551228901        8.1222956769       -1.1566037906
 Cd         4.4053381922        7.2897920765        1.7948254659
 Cd         2.3804046690        5.2452044890       -4.8087235353
 Cd         4.8189788190        4.7184515827       -1.4284070913
 Cd         6.7582268799        3.8401483504        2.0311411605
 Cd         2.6218033086        2.7828964199       -7.7033764951
 Cd         4.8493440758        1.7846641135       -4.5231278566
 Cd         6.7277132166        1.0650187196       -0.9631050560
 Cd         8.8867406019        0.4155739638        2.4347924704
 Cd         4.3617963756       -0.9226050748       -7.7309238069
 Cd         6.7427724961       -1.9756134063       -4.2012699538
 Cd         8.5291280837       -2.6208015922       -0.2527888391
 Se        -9.0547777776        0.2428748868        0.9183215357
 Se        -6.3727631470       -0.6564876353        4.4183073672
 Se        -3.9345379399       -1.3489436812        8.2965211559
 Se        -6.5831277617       -3.7425293896        1.3880861357
 Se        -4.5790801158       -4.2748341490        4.8597277300
 Se        -4.6122318378       -7.7765817065        1.5328412150
 Se        -6.6422641991        3.9855664722        0.4577144601
 Se        -4.0719658803        2.6208502816        3.9142914034
 Se        -1.6333284545        2.0117351350        7.9251201921
 Se        -6.7116639876        0.9828881788       -3.1654745657
 Se        -4.4070681072       -0.2111871557        0.3948934442
 Se        -2.0531402159       -1.1153524642        4.2593835518
 Se         0.4060038243       -1.5661542728        8.0650759247
 Se        -4.4160747079       -3.1299833460       -2.8046640322
 Se        -2.2374501259       -4.0915894948        0.9472051416
 Se         0.1530622764       -4.8127594716        4.4858014852
 Se        -2.4165671172       -7.4206099928       -2.0539532485
 Se        -0.0669651118       -7.8791306404        1.3095394453
 Se        -4.5521233243        7.5948408124       -0.0125891915
 Se        -1.8467500247        6.3632976241        3.5400653357
 Se         0.4037020788        5.8261675547        7.5858642379
 Se        -4.4660258063        4.5539610975       -3.3489540695
 Se        -2.0809871349        3.7152533834        0.3431777314
 Se         0.4982244675        2.6970097787        3.7286735704
 Se         2.7717971581        1.9958710290        7.6262101267
 Se        -4.6131736515        2.0747738750       -6.9049094536
 Se        -2.2788877080        0.8535244429       -3.1260981388
 Se         0.0145505303       -0.1632202558        0.3853953557
 Se         2.3129691658       -1.3189372169        3.9990021120
 Se         4.8631524357       -1.8843032803        7.7354060967
 Se        -2.0702171884       -1.9664154077       -6.4603791790
 Se        -0.0447305315       -3.1599250779       -2.8087913162
 Se         2.2323303358       -4.2314582562        0.7809365192
 Se         4.8362390086       -4.9530883833        4.0967213826
 Se        -0.7551448513       -6.2848108357       -5.8413950757
 Se         1.9250127470       -7.4790420367       -2.6076254534
 Se         4.2593684755       -8.3791758569        0.7364105584
 Se         0.0356463773        7.3686194006       -0.4913337513
 Se         2.3809128391        6.5252192546        3.1424600891
 Se         0.0437163670        4.4288322971       -3.5939966717
 Se         2.5163892151        3.6274411913       -0.0568206503
 Se         4.7726960093        2.4661926840        3.1253352105
 Se         0.0455235443        1.9299616481       -6.9704995295
 Se         2.2758240019        0.7648321375       -3.6570675807
 Se         4.3766491030       -0.2853678486       -0.0177933525
 Se         6.9677167855       -1.1294324571        3.5582499450
 Se         2.2369912706       -2.2681715559       -6.6837658620
 Se         4.3737339869       -3.1974941475       -3.2156614233
 Se         6.4331605304       -4.1116840213        0.4129834171
 Se         4.8515295323        7.5524205172       -0.7459148249
 Se         4.8774822814        4.5489847909       -4.0122230131
 Se         7.0855876375        3.5934512107       -0.6429002851
 Se         4.7816791986        1.5264147270       -7.5555479510
 Se         6.9185465100        0.6112267062       -3.7073722368
 Se         9.1068651295       -0.0626978971       -0.0923242027
  C         6.9966783904       -6.9498402366       -2.8612695423
  H         7.7649322095       -7.1224747738       -3.6684216540
  O         5.8439640679       -6.4672079697       -3.1401001430
  O         7.2884758577       -7.2741113729       -1.6935587991
  C         3.3950657039       -6.2673063144       -6.9491811154
  H         4.3444066225       -6.8936096686       -7.0753272229
  O         3.0188267301       -5.7908783718       -5.7819495484
  O         2.6176947835       -6.1688995589       -7.9239750733
  C         6.3106279493       -2.9078505862       -7.4910558063
  H         7.1299137504       -3.7048862282       -7.4466889051
  O         6.0085427989       -2.3181827875       -6.3473929191
  O         5.9393467275       -2.4742264265       -8.6124620676
  C         8.9774484618       -3.3708806807       -3.4296488835
  H         9.9250180562       -3.8774829974       -3.1826003730
  O         8.5682521208       -3.4148544527       -4.6046167615
  O         8.2717188309       -2.6966727304       -2.5200087804
  C         9.7980747525       -4.6252009442        2.1809981334
  H        10.6408655401       -5.3318691344        2.3887999993
  O         9.7470614832       -4.1804834499        0.9925706571
  O         9.0285426650       -4.5681085703        3.1870353253
  C        -2.8217311730       -8.8884383581        5.3598597307
  H        -2.4154187803       -9.9024293192        5.4343946394
  O        -1.9847232918       -7.9306455032        5.0423229872
  O        -4.0904669493       -8.7274277269        5.4044050390
  C         2.9969219010       -8.6916227678        5.2874265949
  H         2.6967725338       -9.0398269484        6.2934215078
  O         1.9992991212       -8.3578537319        4.5594090595
  O         4.2233793778       -8.6005311021        4.9154038914
  C         2.8793044564       -5.7053269616        8.2324280478
  H         2.3955873073       -6.3773024893        8.9303283437
  O         2.2189407048       -4.8088121112        7.6163377157
  O         4.1498455391       -5.9034541207        8.1535798938
  C        -2.5347133034       -5.9173478313        8.5220071166
  H        -2.0052498086       -6.7390725628        9.0096019785
  O        -1.9214164663       -5.2583227953        7.5983260413
  O        -3.6522439042       -5.5083886558        8.8927480244
  C        -6.8630680677        2.3027059202        7.3892072933
  H        -7.2086193538        3.3071349018        7.3885257928
  O        -5.6212777813        2.1591071577        7.5336900476
  O        -7.6695381989        1.3702486933        7.1999458826
  C        -4.1169963447        6.2828045522        7.2281920640
  H        -5.2418933127        6.2896177269        7.3832000201
  O        -3.5266533590        5.2290309793        6.7738247140
  O        -3.5910739025        7.4673283481        7.3180522372
  C        -6.2567433410        7.1462440376        4.0780924402
  H        -7.2111390447        7.1649409639        4.6689854642
  O        -5.8090469696        6.0478303670        3.6278568808
  O        -5.6127338912        8.2207099347        3.8486906788
  C        -9.2742216723        2.9617576844        4.4604767994
  H        -9.7855372140        3.8838940690        4.7760086716
  O        -8.0588125912        3.0119062769        4.1192679800
  O       -10.0810775732        1.9792404685        4.3921782901
  C        -9.6032807498       -3.5282208013        4.2551676244
  H       -10.5971720209       -3.6001750875        4.7566807035
  O        -9.3832726464       -2.7227915330        3.2942624612
  O        -8.6785520616       -4.3016554489        4.7629587112
  C        -5.4081382378       -6.0792351139       -6.1561958117
  H        -6.0546960796       -6.5859836395       -6.8890942905
  O        -5.3110231503       -6.5040871112       -4.9651663906
  O        -4.7983769967       -5.0927387786       -6.6853031394
  C        -7.4874945404       -7.2705752238       -1.8347938109
  H        -7.8388434959       -7.7173330376       -2.7530342297
  O        -6.3887347683       -6.5549867060       -1.8842835215
  O        -8.0716784390       -7.4409034172       -0.7458196786
  C        -9.2562801575       -3.4269973737       -2.1219764859
  H        -9.5270787848       -4.0663584857       -2.9594189931
  O        -8.1698185160       -2.7554013805       -2.2727147259
  O        -9.8242152230       -3.4939568646       -1.0091978642
  C        -6.7207107993       -1.5101431109       -7.0046021341
  H        -7.7450574417       -1.9674181007       -7.1698505571
  O        -6.3198316902       -1.2781041450       -5.7989904188
  O        -6.0632814873       -1.2634535162       -8.0155039543
  C        -1.9629104602        5.6954907983       -7.4853199116
  H        -1.7770888886        6.7764005651       -7.4923242406
  O        -2.4611840442        5.1867011906       -6.4086933750
  O        -1.7564154322        5.0403887141       -8.5283432896
  C        -1.7168961302        9.0075125365       -3.7839136624
  H        -1.3493405476        9.2660238074       -4.8465614694
  O        -1.7700573667        7.7194473392       -3.5246163224
  O        -1.9637569814        9.8895746564       -2.9408301593
  C         2.5062428692        8.6538906584       -4.1272905467
  H         2.7131102182        9.0638249498       -5.0476060874
  O         2.0944623295        7.4532172986       -4.0307284820
  O         2.6627572026        9.4111576761       -3.1552238156
  C         1.7411624296        5.3672432672       -8.1968700554
  H         1.4358383610        6.4416008070       -8.3632925476
  O         2.2781629436        5.0765920039       -7.0406756238
  O         1.5312471872        4.4833397477       -9.0175682269
  C         9.4768901141        2.6096284637        3.8999975635
  H         9.6131090334        3.4671477718        4.5843902861
  O         8.5279806195        2.7173567571        3.0491673641
  O        10.1885346242        1.5401389538        4.0330820759
  C         6.6326630260        7.0383106770        3.3282006127
  H         7.5082674956        7.1289998248        4.0070788575
  O         6.4944803589        6.1604070283        2.4465522809
  O         5.7954687513        7.9030044735        3.5812728319
  C         4.7447656119        5.8524855639        6.9354042197
  H         5.7085862008        5.7040540943        7.4370666698
  O         4.3285813959        4.9885436483        6.0815261706
  O         4.1456357310        6.9224011742        7.1371528886
  C         7.5603391290        1.7452806734        7.1878897466
  H         8.1158840311        2.6116602203        7.6593692779
  O         6.7458559334        2.0302453383        6.2244498642
  O         7.8435012200        0.5821412997        7.5895210320
     227
 i =        2, time =        2.000, E =       -10.2120845344
 Cd        -8.6170007551        0.4783098504        3.4767466614
 Cd        -5.8707129614       -0.2576901281        7.1136670399
 Cd        -8.4088597025       -2.1551437991        0.3836956429
 Cd        -6.8897110224       -3.2939536725        3.9621492278