     227
 i =        0, time =        0.000, E =       -19.8191501329
 Cd        -8.6216924880        0.4810107428        3.4775887729
 Cd        -5.8723589632       -0.2566559957        7.1151373767
 Cd        -8.4076147924       -2.1531404527        0.3867588804
 Cd        -6.8957642261       -3.2896665849        3.9600318291
 Cd        -3.6930098048       -3.6992689615        7.3819491709
 Cd        -6.4429261463       -6.2347087238        0.4622469067
 Cd        -4.3123952394       -6.8285875372        3.9039095072
 Cd        -6.1141073353        3.8626235599        2.9066844924
 Cd        -3.6048790416        2.8797284733        6.5917986711
 Cd        -6.7531255596        1.1841266196       -0.3182182747
 Cd        -4.0437606329        0.0729837467        3.0511954168
 Cd        -1.7753257667       -0.3121054857        6.8316599018
 Cd        -6.3661028473       -1.4630135273       -3.4383357626
 Cd        -4.3602814436       -3.1214810613       -0.1759283953
 Cd        -2.2424276819       -3.6242998489        3.6335413818
 Cd         0.1757294635       -3.9625201566        7.0364714760
 Cd        -4.2692200317       -5.9860442556       -3.0005266361
 Cd        -2.2482225396       -6.7972628816        0.6786391664
 Cd         0.0669003827       -7.3030327295        3.8545421700
 Cd        -4.0792754193        7.4105475565        2.4175118797
 Cd        -1.6116442377        6.4880648240        6.2478272306
 Cd        -4.3308002626        4.8127262164       -0.6762739309
 Cd        -1.8326132452        3.6694977750        3.1598212265
 Cd         0.4939817277        3.1637060931        6.7202662426
 Cd        -4.5980154021        1.9988297698       -4.0880170010
 Cd        -2.1651194586        1.0165564496       -0.4536921834
 Cd         0.1376109507       -0.0659106884        3.1336818174
 Cd         2.6419074521       -0.6636939286        6.8958319365
 Cd        -4.1515129292       -0.5348426091       -6.9620217917
 Cd        -2.2012490343       -1.8491984656       -3.4894107829
 Cd         0.0359311218       -2.8494155653       -0.0264680683
 Cd         2.4407298775       -3.8224684908        3.5289587884
 Cd         4.5907434619       -4.2169180472        6.5928471603
 Cd        -2.6321953796       -4.5685798778       -6.0773989300
 Cd        -0.3638438279       -6.1221236347       -3.0620735359
 Cd         1.9882729153       -6.8506852632       -0.0376753302
 Cd         4.3604701588       -7.5063202656        3.0981086138
 Cd        -2.4313710890        8.2839908015       -1.2010761441
 Cd         0.1210964618        6.7915494583        2.0748938605
 Cd         2.2602783261        6.3879934074        5.9824457591
 Cd        -2.2743307721        5.5403016700       -4.1096429978
 Cd         0.1552258413        4.6164378819       -0.9814446932
 Cd         2.6173372932        3.7540356816        2.4616712460
 Cd         4.3934694910        2.5024270436        5.6448470259
 Cd        -2.3839877703        3.0961459608       -7.5397423510
 Cd        -0.1308699873        1.7716472388       -4.3458913396
 Cd         2.1522040622        0.8595996928       -0.9600505658
 Cd         4.3027041934       -0.4425155449        2.5248589789
 Cd         6.4943132815       -0.6514444341        6.0110723312
 Cd         0.4032906214       -0.5920449882       -7.0625722312
 Cd         2.1504065746       -1.8410095193       -3.9631978812
 Cd         4.1282053355       -2.9764966895       -0.5499119195
 Cd         6.9189885741       -3.8001688729        2.8840486736
 Cd         1.0693858855       -4.7693596381       -6.7909688629
 Cd         3.6529341800       -5.7620820022       -3.6150795142
 Cd         5.7341856059       -6.5625995016       -0.3323817960
 Cd         2.4532379782        8.1225833618       -1.1556872380
 Cd         4.4025673150        7.2904811152        1.7928276254
 Cd         2.3800547108        5.2453457502       -4.8107637235
 Cd         4.8184663347        4.7191125514       -1.4277792117
 Cd         6.7589411702        3.8390778732        2.0295448973
 Cd         2.6210634084        2.7844913241       -7.7035228004
 Cd         4.8495943395        1.7843685348       -4.5225056138
 Cd         6.7261500983        1.0662237140       -0.9642295531
 Cd         8.8881450478        0.4141445330        2.4369093904
 Cd         4.3615782352       -0.9213178924       -7.7328888960
 Cd         6.7438649008       -1.9767569930       -4.2031112584
 Cd         8.5272445020       -2.6218905711       -0.2551455218
 Se        -9.0557725106        0.2424574140        0.9180313808
 Se        -6.3745872764       -0.6570220647        4.4225742627
 Se        -3.9358548519       -1.3506397678        8.2925868769
 Se        -6.5830028390       -3.7408669090        1.3890860046
 Se        -4.5802302415       -4.2716541219        4.8585926421
 Se        -4.6110671623       -7.7792240778        1.5343213278
 Se        -6.6407812351        3.9866809498        0.4586064126
 Se        -4.0705866514        2.6241591830        3.9150270775
 Se        -1.6315747320        2.0143859544        7.9219454430
 Se        -6.7106235468        0.9827493806       -3.1628202938
 Se        -4.4077684895       -0.2106461950        0.3970531668
 Se        -2.0534879979       -1.1190641497        4.2604482105
 Se         0.4069246601       -1.5676855049        8.0617057342
 Se        -4.4126107232       -3.1307459794       -2.8028288282
 Se        -2.2371864822       -4.0884616040        0.9473336128
 Se         0.1541797359       -4.8148952714        4.4843326207
 Se        -2.4147106009       -7.4199706225       -2.0529393442
 Se        -0.0662571417       -7.8800811154        1.3078284855
 Se        -4.5519687636        7.5920037884       -0.0122560791
 Se        -1.8482840651        6.3647212661        3.5390459072
 Se         0.4006735392        5.8241498358        7.5878867146
 Se        -4.4655945585        4.5529209660       -3.3484418515
 Se        -2.0798083538        3.7153034916        0.3451575142
 Se         0.4973892782        2.6967113851        3.7286137790
 Se         2.7724753484        1.9958260876        7.6298945277
 Se        -4.6126224962        2.0736182894       -6.9031574659
 Se        -2.2770211290        0.8531533747       -3.1284312065
 Se         0.0138865169       -0.1636477002        0.3858468104
 Se         2.3115473387       -1.3198431962        4.0017354986
 Se         4.8624545925       -1.8855864388        7.7371297607
 Se        -2.0700877949       -1.9675257511       -6.4603372509
 Se        -0.0447057629       -3.1582708631       -2.8090856920
 Se         2.2343306950       -4.2299664240        0.7817840723
 Se         4.8342987615       -4.9516929708        4.0974643468
 Se        -0.7556003326       -6.2829108386       -5.8406699955
 Se         1.9243057511       -7.4784768035       -2.6074198353
 Se         4.2543989663       -8.3809591814        0.7363809319
 Se         0.0386925703        7.3677075300       -0.4939635450
 Se         2.3791568525        6.5289221229        3.1400383851
 Se         0.0465974103        4.4270318221       -3.5936563407
 Se         2.5167269427        3.6273521599       -0.0581806204
 Se         4.7705604635        2.4670139639        3.1233546104
 Se         0.0435933033        1.9323944164       -6.9695738842
 Se         2.2733127965        0.7623703678       -3.6584263160
 Se         4.3816175435       -0.2841549253       -0.0177063702
 Se         6.9670500347       -1.1290204494        3.5565582379
 Se         2.2410869402       -2.2702007814       -6.6798205275
 Se         4.3723294721       -3.1971869108       -3.2130677403
 Se         6.4331938555       -4.1098532443        0.4136420186
 Se         4.8503033307        7.5509093293       -0.7463548497
 Se         4.8776288797        4.5477652435       -4.0091414448
 Se         7.0830986217        3.5950723552       -0.6434567968
 Se         4.7810064642        1.5273410534       -7.5566303287
 Se         6.9188050062        0.6130038217       -3.7081238627
 Se         9.1066871843       -0.0609359671       -0.0919647969
  C         6.9955771113       -6.9586634775       -2.8583426301
  H         7.7780160969       -7.1271873265       -3.6573399650
  O         5.8389952916       -6.4652991204       -3.1445809228
  O         7.2920676004       -7.2683568805       -1.6893132711
  C         3.3939431960       -6.2668607509       -6.9513074648
  H         4.3245440932       -6.8689211647       -7.0591687882
  O         3.0202466073       -5.7860511295       -5.7843136273
  O         2.6220129789       -6.1746538788       -7.9242101403
  C         6.3116555909       -2.9071154185       -7.4921130606
  H         7.0978863851       -3.7212906458       -7.4285512081
  O         6.0096715894       -2.3219711192       -6.3505932827
  O         5.9403243477       -2.4750431756       -8.6116316973
  C         8.9837561036       -3.3697375837       -3.4349055328
  H         9.9249943929       -3.8864043165       -3.1840078659
  O         8.5659407989       -3.4209184445       -4.6048832464
  O         8.2714489672       -2.6971151254       -2.5207012617
  C         9.7902109758       -4.6282247391        2.1768529346
  H        10.6284324694       -5.3337138149        2.3552924638
  O         9.7484501532       -4.1824896055        0.9942458601
  O         9.0219926648       -4.5705851174        3.1873629795
  C        -2.8252708508       -8.8894178348        5.3653894160
  H        -2.3915771747       -9.8892286280        5.4446685031
  O        -1.9808601030       -7.9304545651        5.0436955975
  O        -4.0908415257       -8.7280019527        5.4030844137
  C         3.0047406823       -8.6887063298        5.2919739424
  H         2.6853413808       -9.0312323512        6.2714246943
  O         1.9985977812       -8.3553887881        4.5599054594
  O         4.2197147413       -8.6069092298        4.9235206312
  C         2.8732291572       -5.7090624943        8.2322507888
  H         2.4095730423       -6.3582442170        8.9295273658
  O         2.2236878889       -4.8031284854        7.6183804854
  O         4.1525405945       -5.8988692439        8.1468427445
  C        -2.5324052264       -5.9090323801        8.5168983878
  H        -2.0058427467       -6.7599986745        9.0204193621
  O        -1.9189018681       -5.2527647032        7.5983339134
  O        -3.6521974131       -5.4981014961        8.8936623702
  C        -6.8661340661        2.3082426882        7.3884767521
  H        -7.2433530482        3.2983326111        7.3747512577
  O        -5.6189307919        2.1553364867        7.5292857639
  O        -7.6694328727        1.3672322100        7.2032576312
  C        -4.1128935570        6.2776012356        7.2258109093
  H        -5.2184092536        6.2949225170        7.4003980339
  O        -3.5215502414        5.2331222329        6.7794929280
  O        -3.5956064510        7.4679880815        7.3184340370
  C        -6.2584500423        7.1467273309        4.0778865765
  H        -7.2018864753        7.1620259062        4.6862261037
  O        -5.8042352338        6.0508881806        3.6277903665
  O        -5.6141473350        8.2227071687        3.8530055117
  C        -9.2670155991        2.9624473135        4.4549609073
  H        -9.7760873251        3.8307467380        4.7753730710
  O        -8.0580447847        3.0137717908        4.1153681461
  O       -10.0869615960        1.9755230626        4.3964141791
  C        -9.5997958208       -3.5202239981        4.2555074891
  H       -10.6284324694       -3.6062117458        4.7363993397
  O        -9.3836198173       -2.7271085544        3.2939504316
  O        -8.6749593009       -4.3055307223        4.7674147240
  C        -5.4063829718       -6.0836320759       -6.1576393485
  H        -6.0390997038       -6.5934387315       -6.8768176703
  O        -5.3157147411       -6.5042627408       -4.9638375967
  O        -4.7997118332       -5.0931497246       -6.6842330004
  C        -7.4812021438       -7.2683192216       -1.8337008205
  H        -7.8430239833       -7.7214409635       -2.7403108931
  O        -6.3847231004       -6.5596142310       -1.8855223803
  O        -8.0870004405       -7.4369608581       -0.7449951352
  C        -9.2637717352       -3.4248031045       -2.1287629167
  H        -9.5435102925       -4.0726156799       -2.9624854104
  O        -8.1685743898       -2.7562864935       -2.2769679175
  O        -9.8293124780       -3.4993302663       -1.0042472880
  C        -6.7198117275       -1.5155721631       -7.0057360974
  H        -7.7266400310       -1.9701098143       -7.1795729881
  O        -6.3208037730       -1.2812141421       -5.7891801227
  O        -6.0546670581       -1.2647410752       -8.0219575549
  C        -1.9610306020        5.6962737072       -7.4797868569
  H        -1.8068881661        6.7616764611       -7.4798700689
  O        -2.4613788677        5.1953402046       -6.4147373301
  O        -1.7592038190        5.0404242691       -8.5376948407
  C        -1.7153677193        9.0065729983       -3.7807068554
  H        -1.3518565997        9.2891789052       -4.8285272378
  O        -1.7735635219        7.7204009534       -3.5311974415
  O        -1.9589811591        9.8892286280       -2.9296575010
  C         2.5176986766        8.6527359013       -4.1276241396
  H         2.7356319561        9.0838176512       -5.0545617483
  O         2.0941304229        7.4607563111       -4.0382054964
  O         2.6632020791        9.4136986823       -3.1567247192
  C         1.7405814703        5.3615037054       -8.2026998584
  H         1.4592813282        6.4433815072       -8.3446733349
  O         2.2712544771        5.0744229803       -7.0359036782
  O         1.5374971892        4.4786315137       -9.0204193621
  C         9.4791869119        2.6134878200        3.9079418032
  H         9.6264681644        3.4611325178        4.5867541287
  O         8.5294682966        2.7206869475        3.0468687327
  O        10.1884170796        1.5361363159        4.0354546634
  C         6.6320899766        7.0427804887        3.3240585285
  H         7.5183451153        7.1103565644        4.0025867163
  O         6.4921259472        6.1579139584        2.4473334656
  O         5.8014508194        7.8970951585        3.5804466065
  C         4.7468288793        5.8510846562        6.9391041765
  H         5.6837062732        5.7110173508        7.4566454645
  O         4.3315486404        4.9881730889        6.0840680113
  O         4.1390624477        6.9214380767        7.1338855679
  C         7.5642974957        1.7429307679        7.1823006621
  H         8.1116275708        2.6102062210        7.6466333920
  O         6.7423080014        2.0330978891        6.2208765696
  O         7.8434776238        0.5800715711        7.5931108165
     227
 i =        1, time =        1.000, E =       -19.8288829059
 Cd        -8.6193483536        0.4796600015        3.4771627128
 Cd        -5.8715244899       -0.2571808703        7.1144076722
 Cd        -8.4082349364       -2.1541333910        0.3852339760
 Cd        -6.8927423924       -3.2918142093        3.9610925533
 Cd        -3.6901774012       -3.7003937386        7.3824048624
 Cd        -6.4419809552       -6.2357727520        0.4642597055
 Cd        -4.3123525493       -6.8296429599        3.9052148316
 Cd        -6.1163904507        3.8609371278        2.9055567320
 Cd        -3.6066250645        2.8812326923        6.5904312168
 Cd        -6.7534412303        1.1872423894       -0.3192277388
 Cd        -4.0444305350        0.0755198248        3.0501943812
 Cd        -1.7741825465       -0.3125670498        6.8336114453
 Cd        -6.3661074143       -1.4624141913       -3.4401817830
 Cd        -4.3613482661       -3.1217890942       -0.1745529182
 Cd        -2.2426172258       -3.6215602254        3.6336181312
 Cd         0.1787208308       -3.9615914684        7.0369492603
 Cd        -4.2693815180       -5.9882576017       -2.9988696725
 Cd        -2.2486930463       -6.7966484588        0.6791617522
 Cd         0.0677944635       -7.3029965607        3.8542310256
 Cd        -4.0803266015        7.4119336933        2.4182605108
 Cd        -1.6107923963        6.4879181138        6.2509900302
 Cd        -4.3325534290        4.8128097898       -0.6769628377
 Cd        -1.8304063521        3.6695964516        3.1589472382
 Cd         0.4898062785        3.1633311570        6.7205645889
 Cd        -4.5996635134        2.0001225109       -4.0890057705
 Cd        -2.1629031663        1.0181235460       -0.4517627840
 Cd         0.1384354270       -0.0681765670        3.1344270220
 Cd         2.6424402623       -0.6635625917        6.8959381023
 Cd        -4.1541059837       -0.5351551254       -6.9611342429
 Cd        -2.2031856156       -1.8491075758       -3.4900258093
 Cd         0.0358078778       -2.8475032582       -0.0251002761
 Cd         2.4397088142       -3.8215500669        3.5304717982
 Cd         4.5938300448       -4.2152055406        6.5946978545
 Cd        -2.6316982900       -4.5699949452       -6.0785574312
 Cd        -0.3609689474       -6.1210975059       -3.0631398205
 Cd         1.9863986850       -6.8523712257       -0.0374674595
 Cd         4.3578598682       -7.5050776508        3.0974169150
 Cd        -2.4320618824        8.2867276500       -1.2003753345
 Cd         0.1211454411        6.7911466941        2.0748053219
 Cd         2.2581215684        6.3879322557        5.9826818992
 Cd        -2.2740475593        5.5405483572       -4.1121349390
 Cd         0.1544571113        4.6148744295       -0.9823600119
 Cd         2.6165327225        3.7533437572        2.4610160875
 Cd         4.3939376615        2.5015435867        5.6447009366
 Cd        -2.3864908231        3.0937474374       -7.5398877655
 Cd        -0.1312644491        1.7709389050       -4.3474281582
 Cd         2.1531931951        0.8600232648       -0.9632111540
 Cd         4.3034779366       -0.4402517039        2.5247980871
 Cd         6.4920437635       -0.6517717127        6.0104956748
 Cd         0.4042689599       -0.5927809575       -7.0621300468
 Cd         2.1513327649       -1.8411014457       -3.9633429084
 Cd         4.1299947284       -2.9780288317       -0.5482384083
 Cd         6.9198308212       -3.7969839476        2.8855167190
 Cd         1.0695817085       -4.7692348723       -6.7906635044
 Cd         3.6506442602       -5.7625316728       -3.6177354481
 Cd         5.7329901211       -6.5640435016       -0.3327971668
 Cd         2.4551350153        8.1223001041       -1.1566456320
 Cd         4.4053721238        7.2897894279        1.7948424597
 Cd         2.3804099382        5.2452326214       -4.8087354344
 Cd         4.8190075916        4.7184599254       -1.4284302130
 Cd         6.7582472152        3.8401515913        2.0311478649
 Cd         2.6218081119        2.7829264888       -7.7033818944
 Cd         4.8493787630        1.7846697552       -4.5231243680
 Cd         6.7277462249        1.0650312555       -0.9631246380
 Cd         8.8867467883        0.4155926032        2.4347923858
 Cd         4.3618339481       -0.9226153350       -7.7309118239
 Cd         6.7427946801       -1.9756263910       -4.2012751780
 Cd         8.5291337448       -2.6208096642       -0.2528108613
 Se        -9.0547103181        0.2428347152        0.9183361067
 Se        -6.3727423451       -0.6565097705        4.4182958628
 Se        -3.9345515278       -1.3489705700        8.2964483908
 Se        -6.5831041961       -3.7425294471        1.3880753773
 Se        -4.5790512285       -4.2748354369        4.8597124022
 Se        -4.6122219497       -7.7764989864        1.5328622167
 Se        -6.6421985428        3.9855369943        0.4577346203
 Se        -4.0719206647        2.6208440435        3.9142678396
 Se        -1.6333366781        2.0117261369        7.9250170628
 Se        -6.7115973771        0.9828549336       -3.1654508788
 Se        -4.4070417219       -0.2111802112        0.3949123608
 Se        -2.0531297105       -1.1153499774        4.2593590801
 Se         0.4060014298       -1.5661782136        8.0650018837
 Se        -4.4160360755       -3.1299570073       -2.8046414600
 Se        -2.2374506271       -4.0915717938        0.9472029332
 Se         0.1530659867       -4.8127439672        4.4857791521
 Se        -2.4165716848       -7.4205216288       -2.0539617184
 Se        -0.0669732933       -7.8790511201        1.3095557962
 Se        -4.5520347379        7.5948214372       -0.0125641793
 Se        -1.8467036344        6.3632893671        3.5400328106
 Se         0.4036935707        5.8261691703        7.5857693733
 Se        -4.4659595003        4.5539398459       -3.3489370158
 Se        -2.0809637058        3.7152461579        0.3431647662
 Se         0.4982000373        2.6970177431        3.7286528813
 Se         2.7717812043        1.9958508606        7.6261163399
 Se        -4.6130936058        2.0747322185       -6.9048942558
 Se        -2.2788602014        0.8535005701       -3.1260976425
 Se         0.0145481045       -0.1632251945        0.3853936472
 Se         2.3129774103       -1.3189326279        3.9989703196
 Se         4.8631369978       -1.8843131702        7.7353177144
 Se        -2.0702249831       -1.9664048736       -6.4603569937
 Se        -0.0447429541       -3.1598930250       -2.8087828983
 Se         2.2323239566       -4.2314250619        0.7809254873
 Se         4.8362247663       -4.9530561186        4.0967196378
 Se        -0.7551522403       -6.2847213347       -5.8413884848
 Se         1.9250014072       -7.4789526995       -2.6075910982
 Se         4.2593754037       -8.3790946455        0.7364411268
 Se         0.0356662631        7.3685858149       -0.4912742694
 Se         2.3808792440        6.5252152263        3.1424217246
 Se         0.0437098956        4.4287959629       -3.5939740952
 Se         2.5163565165        3.6274473045       -0.0568030867
 Se         4.7726587239        2.4661954748        3.1253387579
 Se         0.0455209149        1.9298836368       -6.9704551486
 Se         2.2757840958        0.7648080648       -3.6570394171
 Se         4.3766135845       -0.2853764262       -0.0177664331
 Se         6.9676840498       -1.1294476019        3.5582623290
 Se         2.2369263797       -2.2681155089       -6.6837527204
 Se         4.3736736463       -3.1974740148       -3.2156185949
 Se         6.4331163766       -4.1116721734        0.4130193982
 Se         4.8514461817        7.5524017170       -0.7458610354
 Se         4.8774222254        4.5489524584       -4.0121840423
 Se         7.0855180049        3.5934209114       -0.6428635185
 Se         4.7816000089        1.5263862810       -7.5555390839
 Se         6.9184696220        0.6112217456       -3.7073488098
 Se         9.1068171650       -0.0627267962       -0.0922725839
  C         6.9966683138       -6.9497851808       -2.8612720934
  H         7.7649322095       -7.1224747738       -3.6684216540
  O         5.8438627355       -6.4671900722       -3.1400395467
  O         7.2883323856       -7.2740203472       -1.6934529275
  C         3.3950902160       -6.2672761763       -6.9491513193
  H         4.3444066225       -6.8936096686       -7.0753272229
  O         3.0187830692       -5.7907909555       -5.7818519459
  O         2.6176088887       -6.1687846313       -7.9238992017
  C         6.3106268838       -2.9078690582       -7.4909939649
  H         7.1299137504       -3.7048862282       -7.4466889051
  O         6.0085260982       -2.3181087657       -6.3473474398
  O         5.9392311822       -2.4741318361       -8.6123856780
  C         8.9774042753       -3.3708918150       -3.4296272324
  H         9.9250180562       -3.8774829974       -3.1826003730
  O         8.5681259977       -3.4147712706       -4.6045614281
  O         8.2716281470       -2.6966825898       -2.5199724020
  C         9.7980329783       -4.6251845514        2.1809815626
  H        10.6408655401       -5.3318691344        2.3887999993
  O         9.7470067395       -4.1803732798        0.9925483498
  O         9.0283714591       -4.5680310199        3.1870105570
  C        -2.8217145153       -8.8883946428        5.3598600180
  H        -2.4154187803       -9.9024293192        5.4343946394
  O        -1.9847104076       -7.9305688236        5.0422471244
  O        -4.0904515385       -8.7272889501        5.4043262286
  C         2.9969103667       -8.6915766587        5.2874337364
  H         2.6967725338       -9.0398269484        6.2934215078
  O         1.9992599142       -8.3577453939        4.5593585596
  O         4.2233702865       -8.6004096725        4.9152330381
  C         2.8792811935       -5.7053299857        8.2323923706
  H         2.3955873073       -6.3773024893        8.9303283437
  O         2.2189014399       -4.8087618099        7.6162200530
  O         4.1498440070       -5.9033474310        8.1534389569
  C        -2.5347025481       -5.9173530870        8.5219539509
  H        -2.0052498086       -6.7390725628        9.0096019785
  O        -1.9214416567       -5.2581718482        7.5982961379
  O        -3.6522364666       -5.5082720161        8.8926198903
  C        -6.8630589767        2.3027130645        7.3891466541
  H        -7.2086193538        3.3071349018        7.3885257928
  O        -5.6211948008        2.1590432957        7.5335901912
  O        -7.6694129503        1.3701702759        7.1999395154
  C        -4.1170107293        6.2827772627        7.2281499750
  H        -5.2418933127        6.2896177269        7.3832000201
  O        -3.5265509929        5.2289824703        6.7737573612
  O        -3.5909576209        7.4672550437        7.3179542599
  C        -6.2567226102        7.1462065746        4.0781080266
  H        -7.2111390447        7.1649409639        4.6689854642
  O        -5.8089649814        6.0477842725        3.6278027791
  O        -5.6125783556        8.2206022425        3.8485897379
  C        -9.2741744230        2.9617310772        4.4604912186
  H        -9.7855372140        3.8838940690        4.7760086716
  O        -8.0587303817        3.0118712839        4.1192191223
  O       -10.0809440680        1.9791283170        4.3921316626
  C        -9.6032484158       -3.5282025184        4.2551484070
  H       -10.5971720209       -3.6001750875        4.7566807035
  O        -9.3831583007       -2.7227636329        3.2942839748
  O        -8.6784024061       -4.3015577753        4.7628944658
  C        -5.4081388865       -6.0792036893       -6.1561622545
  H        -6.0546960796       -6.5859836395       -6.8890942905
  O        -5.3109099646       -6.5039865383       -4.9650512947
  O        -4.7982365422       -5.0926866172       -6.6852235839
  C        -7.4874742204       -7.2705247464       -1.8348023565
  H        -7.8388434959       -7.7173330376       -2.7530342297
  O        -6.3886604779       -6.5548993973       -1.8841942021
  O        -8.0715558372       -7.4407978982       -0.7457372204
  C        -9.2562339524       -3.4270148206       -2.1219616648
  H        -9.5270787848       -4.0663584857       -2.9594189931
  O        -8.1697457890       -2.7553481549       -2.2726630845
  O        -9.8241021282       -3.4938897969       -1.0091336779
  C        -6.7206921890       -1.5101731746       -7.0045688873
  H        -7.7450574417       -1.9674181007       -7.1698505571
  O        -6.3196982786       -1.2781519863       -5.7989311020
  O        -6.0631366901       -1.2634420628       -8.0154103318
  C        -1.9628762163        5.6954829455       -7.4852876647
  H        -1.7770888886        6.7764005651       -7.4923242406
  O        -2.4611168138        5.1866176506       -6.4086493845
  O        -1.7564535651        5.0402318993       -8.5282262226
  C        -1.7168624070        9.0074750191       -3.7839173153
  H        -1.3493405476        9.2660238074       -4.8465614694
  O        -1.7701370222        7.7193567887       -3.5245659553
  O        -1.9637773256        9.8894447375       -2.9407134397
  C         2.5062134374        8.6538581120       -4.1272911980
  H         2.7131102182        9.0638249498       -5.0476060874
  O         2.0944688048        7.4531244877       -4.0307186973
  O         2.6627047208        9.4110830641       -3.1551141664
  C         1.7411226478        5.3672388802       -8.1968388646
  H         1.4358383610        6.4416008070       -8.3632925476
  O         2.2781616009        5.0764774983       -7.0405452052
  O         1.5313352390        4.4832450915       -9.0174647434
  C         9.4768329550        2.6096218216        3.9000132320
  H         9.6131090334        3.4671477718        4.5843902861
  O         8.5279025732        2.7173060754        3.0491075727
  O        10.1884257015        1.5400654401        4.0329717857
  C         6.6326418405        7.0382673410        3.3282190244
  H         7.5082674956        7.1289998248        4.0070788575
  O         6.4943673672        6.1603191504        2.4465409294
  O         5.7953683263        7.9029350971        3.5811572245
  C         4.7447778534        5.8524663340        6.9353618736
  H         5.7085862008        5.7040540943        7.4370666698
  O         4.3284874118        4.9885117146        6.0814626882
  O         4.1455031308        6.9223499337        7.1370254769
  C         7.5603289819        1.7452827738        7.1878414196
  H         8.1158840311        2.6116602203        7.6593692779
  O         6.7457592034        2.0301750755        6.2244128105
  O         7.8434261850        0.5820839998        7.5893879965
     227
 i =        2, time =        2.000, E =       -19.8453846170
 Cd        -8.6170206115        0.4783883886        3.4767384107
 Cd        -5.8707194939       -0.2575985188        7.1136945726
 Cd        -8.4089431661       -2.1551700886        0.3836705953
 Cd        -6.8897411921       -3.2939572853        3.9621290454