     227
 i =        0, time =        0.000, E =        -6.2187448880
 Cd        -8.6216924880        0.4810107428        3.4775887729
 Cd        -5.8723589632       -0.2566559957        7.1151373767
 Cd        -8.4076147924       -2.1531404527        0.3867588804
 Cd        -6.8957642261       -3.2896665849        3.9600318291
 Cd        -3.6930098048       -3.6992689615        7.3819491709
 Cd        -6.4429261463       -6.2347087238        0.4622469067
 Cd        -4.3123952394       -6.8285875372        3.9039095072
 Cd        -6.1141073353        3.8626235599        2.9066844924
 Cd        -3.6048790416        2.8797284733        6.5917986711
 Cd        -6.7531255596        1.1841266196       -0.3182182747
 Cd        -4.0437606329        0.0729837467        3.0511954168
 Cd        -1.7753257667       -0.3121054857        6.8316599018
 Cd        -6.3661028473       -1.4630135273       -3.4383357626
 Cd        -4.3602814436       -3.1214810613       -0.1759283953
 Cd        -2.2424276819       -3.6242998489        3.6335413818
 Cd         0.1757294635       -3.9625201566        7.0364714760
 Cd        -4.2692200317       -5.9860442556       -3.0005266361
 Cd        -2.2482225396       -6.7972628816        0.6786391664
 Cd         0.0669003827       -7.3030327295        3.8545421700
 Cd        -4.0792754193        7.4105475565        2.4175118797
 Cd        -1.6116442377        6.4880648240        6.2478272306
 Cd        -4.3308002626        4.8127262164       -0.6762739309
 Cd        -1.8326132452        3.6694977750        3.1598212265
 Cd         0.4939817277        3.1637060931        6.7202662426
 Cd        -4.5980154021        1.9988297698       -4.0880170010
 Cd        -2.1651194586        1.0165564496       -0.4536921834
 Cd         0.1376109507       -0.0659106884        3.1336818174
 Cd         2.6419074521       -0.6636939286        6.8958319365
 Cd        -4.1515129292       -0.5348426091       -6.9620217917
 Cd        -2.2012490343       -1.8491984656       -3.4894107829
 Cd         0.0359311218       -2.8494155653       -0.0264680683
 Cd         2.4407298775       -3.8224684908        3.5289587884
 Cd         4.5907434619       -4.2169180472        6.5928471603
 Cd        -2.6321953796       -4.5685798778       -6.0773989300
 Cd        -0.3638438279       -6.1221236347       -3.0620735359
 Cd         1.9882729153       -6.8506852632       -0.0376753302
 Cd         4.3604701588       -7.5063202656        3.0981086138
 Cd        -2.4313710890        8.2839908015       -1.2010761441
 Cd         0.1210964618        6.7915494583        2.0748938605
 Cd         2.2602783261        6.3879934074        5.9824457591
 Cd        -2.2743307721        5.5403016700       -4.1096429978
 Cd         0.1552258413        4.6164378819       -0.9814446932
 Cd         2.6173372932        3.7540356816        2.4616712460
 Cd         4.3934694910        2.5024270436        5.6448470259
 Cd        -2.3839877703        3.0961459608       -7.5397423510
 Cd        -0.1308699873        1.7716472388       -4.3458913396
 Cd         2.1522040622        0.8595996928       -0.9600505658
 Cd         4.3027041934       -0.4425155449        2.5248589789
 Cd         6.4943132815       -0.6514444341        6.0110723312
 Cd         0.4032906214       -0.5920449882       -7.0625722312
 Cd         2.1504065746       -1.8410095193       -3.9631978812
 Cd         4.1282053355       -2.9764966895       -0.5499119195
 Cd         6.9189885741       -3.8001688729        2.8840486736
 Cd         1.0693858855       -4.7693596381       -6.7909688629
 Cd         3.6529341800       -5.7620820022       -3.6150795142
 Cd         5.7341856059       -6.5625995016       -0.3323817960
 Cd         2.4532379782        8.1225833618       -1.1556872380
 Cd         4.4025673150        7.2904811152        1.7928276254
 Cd         2.3800547108        5.2453457502       -4.8107637235
 Cd         4.8184663347        4.7191125514       -1.4277792117
 Cd         6.7589411702        3.8390778732        2.0295448973
 Cd         2.6210634084        2.7844913241       -7.7035228004
 Cd         4.8495943395        1.7843685348       -4.5225056138
 Cd         6.7261500983        1.0662237140       -0.9642295531
 Cd         8.8881450478        0.4141445330        2.4369093904
 Cd         4.3615782352       -0.9213178924       -7.7328888960
 Cd         6.7438649008       -1.9767569930       -4.2031112584
 Cd         8.5272445020       -2.6218905711       -0.2551455218
 Se        -9.0557725106        0.2424574140        0.9180313808
 Se        -6.3745872764       -0.6570220647        4.4225742627
 Se        -3.9358548519       -1.3506397678        8.2925868769
 Se        -6.5830028390       -3.7408669090        1.3890860046
 Se        -4.5802302415       -4.2716541219        4.8585926421
 Se        -4.6110671623       -7.7792240778        1.5343213278
 Se        -6.6407812351        3.9866809498        0.4586064126
 Se        -4.0705866514        2.6241591830        3.9150270775
 Se        -1.6315747320        2.0143859544        7.9219454430
 Se        -6.7106235468        0.9827493806       -3.1628202938
 Se        -4.4077684895       -0.2106461950        0.3970531668
 Se        -2.0534879979       -1.1190641497        4.2604482105
 Se         0.4069246601       -1.5676855049        8.0617057342
 Se        -4.4126107232       -3.1307459794       -2.8028288282
 Se        -2.2371864822       -4.0884616040        0.9473336128
 Se         0.1541797359       -4.8148952714        4.4843326207
 Se        -2.4147106009       -7.4199706225       -2.0529393442
 Se        -0.0662571417       -7.8800811154        1.3078284855
 Se        -4.5519687636        7.5920037884       -0.0122560791
 Se        -1.8482840651        6.3647212661        3.5390459072
 Se         0.4006735392        5.8241498358        7.5878867146
 Se        -4.4655945585        4.5529209660       -3.3484418515
 Se        -2.0798083538        3.7153034916        0.3451575142
 Se         0.4973892782        2.6967113851        3.7286137790
 Se         2.7724753484        1.9958260876        7.6298945277
 Se        -4.6126224962        2.0736182894       -6.9031574659
 Se        -2.2770211290        0.8531533747       -3.1284312065
 Se         0.0138865169       -0.1636477002        0.3858468104
 Se         2.3115473387       -1.3198431962        4.0017354986
 Se         4.8624545925       -1.8855864388        7.7371297607
 Se        -2.0700877949       -1.9675257511       -6.4603372509
 Se        -0.0447057629       -3.1582708631       -2.8090856920
 Se         2.2343306950       -4.2299664240        0.7817840723
 Se         4.8342987615       -4.9516929708        4.0974643468
 Se        -0.7556003326       -6.2829108386       -5.8406699955
 Se         1.9243057511       -7.4784768035       -2.6074198353
 Se         4.2543989663       -8.3809591814        0.7363809319
 Se         0.0386925703        7.3677075300       -0.4939635450
 Se         2.3791568525        6.5289221229        3.1400383851
 Se         0.0465974103        4.4270318221       -3.5936563407
 Se         2.5167269427        3.6273521599       -0.0581806204
 Se         4.7705604635        2.4670139639        3.1233546104
 Se         0.0435933033        1.9323944164       -6.9695738842
 Se         2.2733127965        0.7623703678       -3.6584263160
 Se         4.3816175435       -0.2841549253       -0.0177063702
 Se         6.9670500347       -1.1290204494        3.5565582379
 Se         2.2410869402       -2.2702007814       -6.6798205275
 Se         4.3723294721       -3.1971869108       -3.2130677403
 Se         6.4331938555       -4.1098532443        0.4136420186
 Se         4.8503033307        7.5509093293       -0.7463548497
 Se         4.8776288797        4.5477652435       -4.0091414448
 Se         7.0830986217        3.5950723552       -0.6434567968
 Se         4.7810064642        1.5273410534       -7.5566303287
 Se         6.9188050062        0.6130038217       -3.7081238627
 Se         9.1066871843       -0.0609359671       -0.0919647969
  C         6.9955771113       -6.9586634775       -2.8583426301
  H         7.7780160969       -7.1271873265       -3.6573399650
  O         5.8389952916       -6.4652991204       -3.1445809228
  O         7.2920676004       -7.2683568805       -1.6893132711
  C         3.3939431960       -6.2668607509       -6.9513074648
  H         4.3245440932       -6.8689211647       -7.0591687882
  O         3.0202466073       -5.7860511295       -5.7843136273
  O         2.6220129789       -6.1746538788       -7.9242101403
  C         6.3116555909       -2.9071154185       -7.4921130606
  H         7.0978863851       -3.7212906458       -7.4285512081
  O         6.0096715894       -2.3219711192       -6.3505932827
  O         5.9403243477       -2.4750431756       -8.6116316973
  C         8.9837561036       -3.3697375837       -3.4349055328
  H         9.9249943929       -3.8864043165       -3.1840078659
  O         8.5659407989       -3.4209184445       -4.6048832464
  O         8.2714489672       -2.6971151254       -2.5207012617
  C         9.7902109758       -4.6282247391        2.1768529346
  H        10.6284324694       -5.3337138149        2.3552924638
  O         9.7484501532       -4.1824896055        0.9942458601
  O         9.0219926648       -4.5705851174        3.1873629795
  C        -2.8252708508       -8.8894178348        5.3653894160
  H        -2.3915771747       -9.8892286280        5.4446685031
  O        -1.9808601030       -7.9304545651        5.0436955975
  O        -4.0908415257       -8.7280019527        5.4030844137
  C         3.0047406823       -8.6887063298        5.2919739424
  H         2.6853413808       -9.0312323512        6.2714246943
  O         1.9985977812       -8.3553887881        4.5599054594
  O         4.2197147413       -8.6069092298        4.9235206312
  C         2.8732291572       -5.7090624943        8.2322507888
  H         2.4095730423       -6.3582442170        8.9295273658
  O         2.2236878889       -4.8031284854        7.6183804854
  O         4.1525405945       -5.8988692439        8.1468427445
  C        -2.5324052264       -5.9090323801        8.5168983878
  H        -2.0058427467       -6.7599986745        9.0204193621
  O        -1.9189018681       -5.2527647032        7.5983339134
  O        -3.6521974131       -5.4981014961        8.8936623702
  C        -6.8661340661        2.3082426882        7.3884767521
  H        -7.2433530482        3.2983326111        7.3747512577
  O        -5.6189307919        2.1553364867        7.5292857639
  O        -7.6694328727        1.3672322100        7.2032576312
  C        -4.1128935570        6.2776012356        7.2258109093
  H        -5.2184092536        6.2949225170        7.4003980339
  O        -3.5215502414        5.2331222329        6.7794929280
  O        -3.5956064510        7.4679880815        7.3184340370
  C        -6.2584500423        7.1467273309        4.0778865765
  H        -7.2018864753        7.1620259062        4.6862261037
  O        -5.8042352338        6.0508881806        3.6277903665
  O        -5.6141473350        8.2227071687        3.8530055117
  C        -9.2670155991        2.9624473135        4.4549609073
  H        -9.7760873251        3.8307467380        4.7753730710
  O        -8.0580447847        3.0137717908        4.1153681461
  O       -10.0869615960        1.9755230626        4.3964141791
  C        -9.5997958208       -3.5202239981        4.2555074891
  H       -10.6284324694       -3.6062117458        4.7363993397
  O        -9.3836198173       -2.7271085544        3.2939504316
  O        -8.6749593009       -4.3055307223        4.7674147240
  C        -5.4063829718       -6.0836320759       -6.1576393485
  H        -6.0390997038       -6.5934387315       -6.8768176703
  O        -5.3157147411       -6.5042627408       -4.9638375967
  O        -4.7997118332       -5.0931497246       -6.6842330004
  C        -7.4812021438       -7.2683192216       -1.8337008205
  H        -7.8430239833       -7.7214409635       -2.7403108931
  O        -6.3847231004       -6.5596142310       -1.8855223803
  O        -8.0870004405       -7.4369608581       -0.7449951352
  C        -9.2637717352       -3.4248031045       -2.1287629167
  H        -9.5435102925       -4.0726156799       -2.9624854104
  O        -8.1685743898       -2.7562864935       -2.2769679175
  O        -9.8293124780       -3.4993302663       -1.0042472880
  C        -6.7198117275       -1.5155721631       -7.0057360974
  H        -7.7266400310       -1.9701098143       -7.1795729881
  O        -6.3208037730       -1.2812141421       -5.7891801227
  O        -6.0546670581       -1.2647410752       -8.0219575549
  C        -1.9610306020        5.6962737072       -7.4797868569
  H        -1.8068881661        6.7616764611       -7.4798700689
  O        -2.4613788677        5.1953402046       -6.4147373301
  O        -1.7592038190        5.0404242691       -8.5376948407
  C        -1.7153677193        9.0065729983       -3.7807068554
  H        -1.3518565997        9.2891789052       -4.8285272378
  O        -1.7735635219        7.7204009534       -3.5311974415
  O        -1.9589811591        9.8892286280       -2.9296575010
  C         2.5176986766        8.6527359013       -4.1276241396
  H         2.7356319561        9.0838176512       -5.0545617483
  O         2.0941304229        7.4607563111       -4.0382054964
  O         2.6632020791        9.4136986823       -3.1567247192
  C         1.7405814703        5.3615037054       -8.2026998584
  H         1.4592813282        6.4433815072       -8.3446733349
  O         2.2712544771        5.0744229803       -7.0359036782
  O         1.5374971892        4.4786315137       -9.0204193621
  C         9.4791869119        2.6134878200        3.9079418032
  H         9.6264681644        3.4611325178        4.5867541287
  O         8.5294682966        2.7206869475        3.0468687327
  O        10.1884170796        1.5361363159        4.0354546634
  C         6.6320899766        7.0427804887        3.3240585285
  H         7.5183451153        7.1103565644        4.0025867163
  O         6.4921259472        6.1579139584        2.4473334656
  O         5.8014508194        7.8970951585        3.5804466065
  C         4.7468288793        5.8510846562        6.9391041765
  H         5.6837062732        5.7110173508        7.4566454645
  O         4.3315486404        4.9881730889        6.0840680113
  O         4.1390624477        6.9214380767        7.1338855679
  C         7.5642974957        1.7429307679        7.1823006621
  H         8.1116275708        2.6102062210        7.6466333920
  O         6.7423080014        2.0330978891        6.2208765696
  O         7.8434776238        0.5800715711        7.5931108165
     227
 i =        1, time =        1.000, E =        -6.2281300980
 Cd        -8.6193382193        0.4796276842        3.4771775551
 Cd        -5.8715497997       -0.2572029054        7.1143870128
 Cd        -8.4082092397       -2.1541412153        0.3852306448
 Cd        -6.8927212937       -3.2917993339        3.9610996402
 Cd        -3.6901802307       -3.7003904975        7.3823568333
 Cd        -6.4419726350       -6.2357423998        0.4642878642
 Cd        -4.3123508627       -6.8296005759        3.9052263617
 Cd        -6.1163769511        3.8609231406        2.9055750530
 Cd        -3.6066215465        2.8812269923        6.5903801029
 Cd        -6.7534157183        1.1872305780       -0.3192189783
 Cd        -4.0444086092        0.0755164758        3.0501715362
 Cd        -1.7741920636       -0.3125849291        6.8335484466
 Cd        -6.3660839473       -1.4624619846       -3.4401657519
 Cd        -4.3613560891       -3.1217787414       -0.1745538938
 Cd        -2.2426050630       -3.6215826428        3.6335993718
 Cd         0.1786857440       -3.9615919239        7.0369252947
 Cd        -4.2693657354       -5.9881950982       -2.9988604005
 Cd        -2.2487236482       -6.7965993960        0.6791710744
 Cd         0.0677795421       -7.3029936017        3.8542323005
 Cd        -4.0802574223        7.4119324924        2.4182808452
 Cd        -1.6107813550        6.4879461159        6.2509367474
 Cd        -4.3325101821        4.8128085036       -0.6769398538
 Cd        -1.8303856113        3.6695963945        3.1589356618
 Cd         0.4898041792        3.1633544981        6.7204988322
 Cd        -4.5995909877        2.0000984870       -4.0890195562
 Cd        -2.1628858852        1.0181306909       -0.4517458350
 Cd         0.1384237646       -0.0681593141        3.1343991581
 Cd         2.6424463234       -0.6635582347        6.8958666942
 Cd        -4.1540581220       -0.5351473017       -6.9611258132
 Cd        -2.2031738562       -1.8490913103       -3.4900331686
 Cd         0.0358057995       -2.8474695139       -0.0250972322
 Cd         2.4397167820       -3.8215665365        3.5304582820
 Cd         4.5938440705       -4.2151918004        6.5946659424
 Cd        -2.6316929478       -4.5699596996       -6.0785328076
 Cd        -0.3609640531       -6.1210239488       -3.0631265658
 Cd         1.9864160619       -6.8523226712       -0.0374540433
 Cd         4.3578789593       -7.5050069131        3.0973841881
 Cd        -2.4320392063        8.2867351677       -1.2003462971
 Cd         0.1211449559        6.7911433446        2.0747632943
 Cd         2.2580847673        6.3879456949        5.9825999604
 Cd        -2.2740244598        5.5405501939       -4.1121195596
 Cd         0.1544600240        4.6148583414       -0.9823191813
 Cd         2.6165100519        3.7533719482        2.4610519532
 Cd         4.3939121670        2.5015193760        5.6446994716
 Cd        -2.3864557987        3.0936882974       -7.5399035314
 Cd        -0.1312614357        1.7709092437       -4.3474094714
 Cd         2.1531498710        0.8600274701       -0.9631952870
 Cd         4.3034687220       -0.4402611514        2.5248333976
 Cd         6.4920134553       -0.6517823159        6.0104966049
 Cd         0.4042413197       -0.5927814954       -7.0621391016
 Cd         2.1512927115       -1.8410988777       -3.9633236732
 Cd         4.1299626635       -2.9780122865       -0.5482286927
 Cd         6.9198127748       -3.7969675469        2.8855559170
 Cd         1.0695386978       -4.7691651787       -6.7906870570
 Cd         3.6506183765       -5.7625026763       -3.6176979726
 Cd         5.7329360992       -6.5639996680       -0.3327569748
 Cd         2.4550936891        8.1223076672       -1.1565961146
 Cd         4.4053381460        7.2898010616        1.7948160693
 Cd         2.3804023146        5.2451929502       -4.8087036525
 Cd         4.8189542231        4.7184577789       -1.4283792864
 Cd         6.7582236362        3.8401559368        2.0311367697
 Cd         2.6217738132        2.7828975183       -7.7033771053
 Cd         4.8492992810        1.7846773015       -4.5231451343
 Cd         6.7276931497        1.0649910862       -0.9630984485
 Cd         8.8867407496        0.4155663798        2.4348042789
 Cd         4.3617766896       -0.9226370923       -7.7309348375
 Cd         6.7427585048       -1.9756133233       -4.2012618658
 Cd         8.5291325949       -2.6207997383       -0.2527743906
 Se        -9.0548423017        0.2429347148        0.9182932748
 Se        -6.3727775747       -0.6564738075        4.4183203884
 Se        -3.9345125066       -1.3489225298        8.2966149220
 Se        -6.5831291188       -3.7425436550        1.3880689414
 Se        -4.5790897833       -4.2748632608        4.8597585881
 Se        -4.6122451523       -7.7766660496        1.5328196174
 Se        -6.6423312701        3.9855769779        0.4576536684
 Se        -4.0719905412        2.6208463757        3.9143238210
 Se        -1.6332995587        2.0117664026        7.9252202957
 Se        -6.7117658949        0.9829496834       -3.1654555735
 Se        -4.4070934024       -0.2111991633        0.3948795656
 Se        -2.0531278629       -1.1153368733        4.2594091494
 Se         0.4059986396       -1.5661405108        8.0651416641
 Se        -4.4160982296       -3.1300252153       -2.8046967475
 Se        -2.2374277922       -4.0915999337        0.9472107753
 Se         0.1530471982       -4.8127531731        4.4858210319
 Se        -2.4165591065       -7.4206991906       -2.0539398459
 Se        -0.0669286305       -7.8792188779        1.3095393566
 Se        -4.5522200333        7.5948597753       -0.0126455845
 Se        -1.8468136955        6.3633149496        3.5401207453
 Se         0.4037134252        5.8261564919        7.5859811137
 Se        -4.4661068188        4.5539843636       -3.3489601740
 Se        -2.0809918174        3.7152491380        0.3431815799
 Se         0.4982499947        2.6969869851        3.7287098664
 Se         2.7718053258        1.9958813345        7.6262867021
 Se        -4.6132601623        2.0747959885       -6.9049231966
 Se        -2.2789101366        0.8535284187       -3.1261054999
 Se         0.0145678255       -0.1632238580        0.3854043700
 Se         2.3129703362       -1.3189028837        3.9990507683
 Se         4.8631754243       -1.8842945822        7.7354838844
 Se        -2.0701862138       -1.9664266001       -6.4603963647
 Se        -0.0447021519       -3.1599603550       -2.8087924248
 Se         2.2323227549       -4.2314818949        0.7809461551
 Se         4.8362509700       -4.9531270991        4.0967250945
 Se        -0.7551474786       -6.2849126520       -5.8413985563
 Se         1.9250179979       -7.4791173662       -2.6076588336
 Se         4.2593562818       -8.3792720312        0.7363701355
 Se         0.0356268076        7.3686480464       -0.4913641894
 Se         2.3809473436        6.5252177147        3.1425282442
 Se         0.0437362892        4.4288441369       -3.5940246675
 Se         2.5164059135        3.6274359643       -0.0568882499
 Se         4.7727363128        2.4661653207        3.1253185967
 Se         0.0455173090        1.9300257736       -6.9705540114
 Se         2.2758593462        0.7648624335       -3.6570819283
 Se         4.3766821171       -0.2853630726       -0.0178421407
 Se         6.9677363275       -1.1294368637        3.5582180903
 Se         2.2370493984       -2.2682322701       -6.6837866894
 Se         4.3737744542       -3.1974983921       -3.2156865069
 Se         6.4331619105       -4.1116985780        0.4129268220
 Se         4.8516374960        7.5524296407       -0.7459594211
 Se         4.8775199085        4.5490067349       -4.0122843423
 Se         7.0856563196        3.5935019486       -0.6429101983
 Se         4.7817805528        1.5264647748       -7.5555524184
 Se         6.9186340591        0.6112242691       -3.7073781531
 Se         9.1069212153       -0.0626729403       -0.0923731810
  C         6.9966814970       -6.9498572099       -2.8612687558
  H         7.7649322095       -7.1224747738       -3.6684216540
  O         5.8441168111       -6.4672766000       -3.1401008408
  O         7.2887429167       -7.2742435081       -1.6937896749
  C         3.3950581470       -6.2673156058       -6.9491903013
  H         4.3444066225       -6.8936096686       -7.0753272229
  O         3.0188613503       -5.7909515490       -5.7821449838
  O         2.6177850701       -6.1689899788       -7.9240436992
  C         6.3106282777       -2.9078448914       -7.4910748716
  H         7.1299137504       -3.7048862282       -7.4466889051
  O         6.0085415578       -2.3182417337       -6.3475557615
  O         5.9394427791       -2.4743141469       -8.6125181447
  C         8.9774620842       -3.3708772481       -3.4296555584
  H         9.9250180562       -3.8774829974       -3.1826003730
  O         8.5683696129       -3.4149425222       -4.6046499988
  O         8.2717970598       -2.6967230611       -2.5201442480
  C         9.7980876312       -4.6252059980        2.1810032421
  H        10.6408655401       -5.3318691344        2.3887999993
  O         9.7472201808       -4.1805950909        0.9926543174
  O         9.0287820122       -4.5682013861        3.1870755689
  C        -2.8217363084       -8.8884518352        5.3598596422
  H        -2.4154187803       -9.9024293192        5.4343946394
  O        -1.9847797664       -7.9306945357        5.0423796207
  O        -4.0904642172       -8.7275226648        5.4044742441
  C         2.9969254570       -8.6916369830        5.2874243932
  H         2.6967725338       -9.0398269484        6.2934215078
  O         1.9994327941       -8.3579556487        4.5594751683
  O         4.2233516255       -8.6007938584        4.9158151461
  C         2.8793116282       -5.7053260293        8.2324390468
  H         2.3955873073       -6.3773024893        8.9303283437
  O         2.2190912560       -4.8089083588        7.6164305258
  O         4.1498213026       -5.9035774720        8.1537053839
  C        -2.5347166191       -5.9173462110        8.5220235072
  H        -2.0052498086       -6.7390725628        9.0096019785
  O        -1.9213707724       -5.2584552240        7.5983678691
  O        -3.6522433122       -5.5085089842        8.8928573536
  C        -6.8630708704        2.3027037176        7.3892259879
  H        -7.2086193538        3.3071349018        7.3885257928
  O        -5.6214082451        2.1591495967        7.5337812445
  O        -7.6696345182        1.3703315621        7.1999659049
  C        -4.1169919100        6.2828129653        7.2282050398
  H        -5.2418933127        6.2896177269        7.3832000201
  O        -3.5267830833        5.2290936026        6.7738899825
  O        -3.5911556007        7.4673726142        7.3181067775
  C        -6.2567497322        7.1462555872        4.0780876350
  H        -7.2111390447        7.1649409639        4.6689854642
  O        -5.8090917109        6.0479536104        3.6279414305
  O        -5.6129188244        8.2208144654        3.8488513904
  C        -9.2742362390        2.9617658872        4.4604723541
  H        -9.7855372140        3.8838940690        4.7760086716
  O        -8.0588909311        3.0119121012        4.1193208889
  O       -10.0812222138        1.9793827495        4.3922610581
  C        -9.6032907182       -3.5282264378        4.2551735490
  H       -10.5971720209       -3.6001750875        4.7566807035
  O        -9.3833671099       -2.7227990594        3.2942771647
  O        -8.6788235071       -4.3018120451        4.7630818423
  C        -5.4081380378       -6.0792448019       -6.1562061571
  H        -6.0546960796       -6.5859836395       -6.8890942905
  O        -5.3111325454       -6.5041558694       -4.9653445949
  O        -4.7985514453       -5.0927872644       -6.6853628949
  C        -7.4875008049       -7.2705907857       -1.8347911763
  H        -7.8388434959       -7.7173330376       -2.7530342297
  O        -6.3888092571       -6.5550401769       -1.8843829402
  O        -8.0717846086       -7.4409845838       -0.7458959856
  C        -9.2562944022       -3.4269919949       -2.1219810551
  H        -9.5270787848       -4.0663584857       -2.9594189931
  O        -8.1698832805       -2.7554419271       -2.2727190494
  O        -9.8242990014       -3.4940221284       -1.0092664702
  C        -6.7207165367       -1.5101338424       -7.0046123839
  H        -7.7450574417       -1.9674181007       -7.1698505571
  O        -6.3198924704       -1.2781251468       -5.7991381802
  O        -6.0634556143       -1.2635157600       -8.0156046661
  C        -1.9629210174        5.6954932192       -7.4853298530
  H        -1.7770888886        6.7764005651       -7.4923242406
  O        -2.4612080450        5.1868034790       -6.4088001366
  O        -1.7563585623        5.0405923927       -8.5284576840
  C        -1.7169065268        9.0075241028       -3.7839125362
  H        -1.3493405476        9.2660238074       -4.8465614694
  O        -1.7700152715        7.7196129435       -3.5246729500
  O        -1.9637375080        9.8896675260       -2.9409239916
  C         2.5062519428        8.6539006922       -4.1272903460
  H         2.7131102182        9.0638249498       -5.0476060874
  O         2.0944576932        7.4533590827       -4.0307044712
  O         2.6627718296        9.4112333977       -3.1553397104
  C         1.7411746940        5.3672446196       -8.1968796713
  H         1.4358383610        6.4416008070       -8.3632925476
  O         2.2781454471        5.0766900426       -7.0409211469
  O         1.5311979836        4.4834461834       -9.0176597099
  C         9.4769077358        2.6096305113        3.8999927330
  H         9.6131090334        3.4671477718        4.5843902861
  O         8.5281038672        2.7173855775        3.0492623410
  O        10.1886296867        1.5402157987        4.0331914840
  C         6.6326695574        7.0383240372        3.3281949365
  H         7.5082674956        7.1289998248        4.0070788575
  O         6.4945553352        6.1605025594        2.4465968853
  O         5.7955818216        7.9030596841        3.5813935118
  C         4.7447618379        5.8524914924        6.9354172747
  H         5.7085862008        5.7040540943        7.4370666698
  O         4.3286567848        4.9885813983        6.0815577708
  O         4.1458337504        6.9224603289        7.1372831097
  C         7.5603422573        1.7452800259        7.1879046454
  H         8.1158840311        2.6116602203        7.6593692779
  O         6.7459499022        2.0302671636        6.2244921323
  O         7.8435705993        0.5822021072        7.5896082326
     227
 i =        2, time =        2.000, E =        -6.2436309364
 Cd        -8.6169806082        0.4782591391        3.4767980358
 Cd        -5.8708203299       -0.2576866108        7.1136116011
 Cd        -8.4088401163       -2.1552004668        0.3836586204
 Cd        -6.8896623713       -3.2938958486        3.9621635280