     227
 i =        0, time =        0.000, E =        -7.0064587206
 Cd        -8.6216924880        0.4810107428        3.4775887729
 Cd        -5.8723589632       -0.2566559957        7.1151373767
 Cd        -8.4076147924       -2.1531404527        0.3867588804
 Cd        -6.8957642261       -3.2896665849        3.9600318291
 Cd        -3.6930098048       -3.6992689615        7.3819491709
 Cd        -6.4429261463       -6.2347087238        0.4622469067
 Cd        -4.3123952394       -6.8285875372        3.9039095072
 Cd        -6.1141073353        3.8626235599        2.9066844924
 Cd        -3.6048790416        2.8797284733        6.5917986711
 Cd        -6.7531255596        1.1841266196       -0.3182182747
 Cd        -4.0437606329        0.0729837467        3.0511954168
 Cd        -1.7753257667       -0.3121054857        6.8316599018
 Cd        -6.3661028473       -1.4630135273       -3.4383357626
 Cd        -4.3602814436       -3.1214810613       -0.1759283953
 Cd        -2.2424276819       -3.6242998489        3.6335413818
 Cd         0.1757294635       -3.9625201566        7.0364714760
 Cd        -4.2692200317       -5.9860442556       -3.0005266361
 Cd        -2.2482225396       -6.7972628816        0.6786391664
 Cd         0.0669003827       -7.3030327295        3.8545421700
 Cd        -4.0792754193        7.4105475565        2.4175118797
 Cd        -1.6116442377        6.4880648240        6.2478272306
 Cd        -4.3308002626        4.8127262164       -0.6762739309
 Cd        -1.8326132452        3.6694977750        3.1598212265
 Cd         0.4939817277        3.1637060931        6.7202662426
 Cd        -4.5980154021        1.9988297698       -4.0880170010
 Cd        -2.1651194586        1.0165564496       -0.4536921834
 Cd         0.1376109507       -0.0659106884        3.1336818174
 Cd         2.6419074521       -0.6636939286        6.8958319365
 Cd        -4.1515129292       -0.5348426091       -6.9620217917
 Cd        -2.2012490343       -1.8491984656       -3.4894107829
 Cd         0.0359311218       -2.8494155653       -0.0264680683
 Cd         2.4407298775       -3.8224684908        3.5289587884
 Cd         4.5907434619       -4.2169180472        6.5928471603
 Cd        -2.6321953796       -4.5685798778       -6.0773989300
 Cd        -0.3638438279       -6.1221236347       -3.0620735359
 Cd         1.9882729153       -6.8506852632       -0.0376753302
 Cd         4.3604701588       -7.5063202656        3.0981086138
 Cd        -2.4313710890        8.2839908015       -1.2010761441
 Cd         0.1210964618        6.7915494583        2.0748938605
 Cd         2.2602783261        6.3879934074        5.9824457591
 Cd        -2.2743307721        5.5403016700       -4.1096429978
 Cd         0.1552258413        4.6164378819       -0.9814446932
 Cd         2.6173372932        3.7540356816        2.4616712460
 Cd         4.3934694910        2.5024270436        5.6448470259
 Cd        -2.3839877703        3.0961459608       -7.5397423510
 Cd        -0.1308699873        1.7716472388       -4.3458913396
 Cd         2.1522040622        0.8595996928       -0.9600505658
 Cd         4.3027041934       -0.4425155449        2.5248589789
 Cd         6.4943132815       -0.6514444341        6.0110723312
 Cd         0.4032906214       -0.5920449882       -7.0625722312
 Cd         2.1504065746       -1.8410095193       -3.9631978812
 Cd         4.1282053355       -2.9764966895       -0.5499119195
 Cd         6.9189885741       -3.8001688729        2.8840486736
 Cd         1.0693858855       -4.7693596381       -6.7909688629
 Cd         3.6529341800       -5.7620820022       -3.6150795142
 Cd         5.7341856059       -6.5625995016       -0.3323817960
 Cd         2.4532379782        8.1225833618       -1.1556872380
 Cd         4.4025673150        7.2904811152        1.7928276254
 Cd         2.3800547108        5.2453457502       -4.8107637235
 Cd         4.8184663347        4.7191125514       -1.4277792117
 Cd         6.7589411702        3.8390778732        2.0295448973
 Cd         2.6210634084        2.7844913241       -7.7035228004
 Cd         4.8495943395        1.7843685348       -4.5225056138
 Cd         6.7261500983        1.0662237140       -0.9642295531
 Cd         8.8881450478        0.4141445330        2.4369093904
 Cd         4.3615782352       -0.9213178924       -7.7328888960
 Cd         6.7438649008       -1.9767569930       -4.2031112584
 Cd         8.5272445020       -2.6218905711       -0.2551455218
 Se        -9.0557725106        0.2424574140        0.9180313808
 Se        -6.3745872764       -0.6570220647        4.4225742627
 Se        -3.9358548519       -1.3506397678        8.2925868769
 Se        -6.5830028390       -3.7408669090        1.3890860046
 Se        -4.5802302415       -4.2716541219        4.8585926421
 Se        -4.6110671623       -7.7792240778        1.5343213278
 Se        -6.6407812351        3.9866809498        0.4586064126
 Se        -4.0705866514        2.6241591830        3.9150270775
 Se        -1.6315747320        2.0143859544        7.9219454430
 Se        -6.7106235468        0.9827493806       -3.1628202938
 Se        -4.4077684895       -0.2106461950        0.3970531668
 Se        -2.0534879979       -1.1190641497        4.2604482105
 Se         0.4069246601       -1.5676855049        8.0617057342
 Se        -4.4126107232       -3.1307459794       -2.8028288282
 Se        -2.2371864822       -4.0884616040        0.9473336128
 Se         0.1541797359       -4.8148952714        4.4843326207
 Se        -2.4147106009       -7.4199706225       -2.0529393442
 Se        -0.0662571417       -7.8800811154        1.3078284855
 Se        -4.5519687636        7.5920037884       -0.0122560791
 Se        -1.8482840651        6.3647212661        3.5390459072
 Se         0.4006735392        5.8241498358        7.5878867146
 Se        -4.4655945585        4.5529209660       -3.3484418515
 Se        -2.0798083538        3.7153034916        0.3451575142
 Se         0.4973892782        2.6967113851        3.7286137790
 Se         2.7724753484        1.9958260876        7.6298945277
 Se        -4.6126224962        2.0736182894       -6.9031574659
 Se        -2.2770211290        0.8531533747       -3.1284312065
 Se         0.0138865169       -0.1636477002        0.3858468104
 Se         2.3115473387       -1.3198431962        4.0017354986
 Se         4.8624545925       -1.8855864388        7.7371297607
 Se        -2.0700877949       -1.9675257511       -6.4603372509
 Se        -0.0447057629       -3.1582708631       -2.8090856920
 Se         2.2343306950       -4.2299664240        0.7817840723
 Se         4.8342987615       -4.9516929708        4.0974643468
 Se        -0.7556003326       -6.2829108386       -5.8406699955
 Se         1.9243057511       -7.4784768035       -2.6074198353
 Se         4.2543989663       -8.3809591814        0.7363809319
 Se         0.0386925703        7.3677075300       -0.4939635450
 Se         2.3791568525        6.5289221229        3.1400383851
 Se         0.0465974103        4.4270318221       -3.5936563407
 Se         2.5167269427        3.6273521599       -0.0581806204
 Se         4.7705604635        2.4670139639        3.1233546104
 Se         0.0435933033        1.9323944164       -6.9695738842
 Se         2.2733127965        0.7623703678       -3.6584263160
 Se         4.3816175435       -0.2841549253       -0.0177063702
 Se         6.9670500347       -1.1290204494        3.5565582379
 Se         2.2410869402       -2.2702007814       -6.6798205275
 Se         4.3723294721       -3.1971869108       -3.2130677403
 Se         6.4331938555       -4.1098532443        0.4136420186
 Se         4.8503033307        7.5509093293       -0.7463548497
 Se         4.8776288797        4.5477652435       -4.0091414448
 Se         7.0830986217        3.5950723552       -0.6434567968
 Se         4.7810064642        1.5273410534       -7.5566303287
 Se         6.9188050062        0.6130038217       -3.7081238627
 Se         9.1066871843       -0.0609359671       -0.0919647969
  C         6.9955771113       -6.9586634775       -2.8583426301
  H         7.7780160969       -7.1271873265       -3.6573399650
  O         5.8389952916       -6.4652991204       -3.1445809228
  O         7.2920676004       -7.2683568805       -1.6893132711
  C         3.3939431960       -6.2668607509       -6.9513074648
  H         4.3245440932       -6.8689211647       -7.0591687882
  O         3.0202466073       -5.7860511295       -5.7843136273
  O         2.6220129789       -6.1746538788       -7.9242101403
  C         6.3116555909       -2.9071154185       -7.4921130606
  H         7.0978863851       -3.7212906458       -7.4285512081
  O         6.0096715894       -2.3219711192       -6.3505932827
  O         5.9403243477       -2.4750431756       -8.6116316973
  C         8.9837561036       -3.3697375837       -3.4349055328
  H         9.9249943929       -3.8864043165       -3.1840078659
  O         8.5659407989       -3.4209184445       -4.6048832464
  O         8.2714489672       -2.6971151254       -2.5207012617
  C         9.7902109758       -4.6282247391        2.1768529346
  H        10.6284324694       -5.3337138149        2.3552924638
  O         9.7484501532       -4.1824896055        0.9942458601
  O         9.0219926648       -4.5705851174        3.1873629795
  C        -2.8252708508       -8.8894178348        5.3653894160
  H        -2.3915771747       -9.8892286280        5.4446685031
  O        -1.9808601030       -7.9304545651        5.0436955975
  O        -4.0908415257       -8.7280019527        5.4030844137
  C         3.0047406823       -8.6887063298        5.2919739424
  H         2.6853413808       -9.0312323512        6.2714246943
  O         1.9985977812       -8.3553887881        4.5599054594
  O         4.2197147413       -8.6069092298        4.9235206312
  C         2.8732291572       -5.7090624943        8.2322507888
  H         2.4095730423       -6.3582442170        8.9295273658
  O         2.2236878889       -4.8031284854        7.6183804854
  O         4.1525405945       -5.8988692439        8.1468427445
  C        -2.5324052264       -5.9090323801        8.5168983878
  H        -2.0058427467       -6.7599986745        9.0204193621
  O        -1.9189018681       -5.2527647032        7.5983339134
  O        -3.6521974131       -5.4981014961        8.8936623702
  C        -6.8661340661        2.3082426882        7.3884767521
  H        -7.2433530482        3.2983326111        7.3747512577
  O        -5.6189307919        2.1553364867        7.5292857639
  O        -7.6694328727        1.3672322100        7.2032576312
  C        -4.1128935570        6.2776012356        7.2258109093
  H        -5.2184092536        6.2949225170        7.4003980339
  O        -3.5215502414        5.2331222329        6.7794929280
  O        -3.5956064510        7.4679880815        7.3184340370
  C        -6.2584500423        7.1467273309        4.0778865765
  H        -7.2018864753        7.1620259062        4.6862261037
  O        -5.8042352338        6.0508881806        3.6277903665
  O        -5.6141473350        8.2227071687        3.8530055117
  C        -9.2670155991        2.9624473135        4.4549609073
  H        -9.7760873251        3.8307467380        4.7753730710
  O        -8.0580447847        3.0137717908        4.1153681461
  O       -10.0869615960        1.9755230626        4.3964141791
  C        -9.5997958208       -3.5202239981        4.2555074891
  H       -10.6284324694       -3.6062117458        4.7363993397
  O        -9.3836198173       -2.7271085544        3.2939504316
  O        -8.6749593009       -4.3055307223        4.7674147240
  C        -5.4063829718       -6.0836320759       -6.1576393485
  H        -6.0390997038       -6.5934387315       -6.8768176703
  O        -5.3157147411       -6.5042627408       -4.9638375967
  O        -4.7997118332       -5.0931497246       -6.6842330004
  C        -7.4812021438       -7.2683192216       -1.8337008205
  H        -7.8430239833       -7.7214409635       -2.7403108931
  O        -6.3847231004       -6.5596142310       -1.8855223803
  O        -8.0870004405       -7.4369608581       -0.7449951352
  C        -9.2637717352       -3.4248031045       -2.1287629167
  H        -9.5435102925       -4.0726156799       -2.9624854104
  O        -8.1685743898       -2.7562864935       -2.2769679175
  O        -9.8293124780       -3.4993302663       -1.0042472880
  C        -6.7198117275       -1.5155721631       -7.0057360974
  H        -7.7266400310       -1.9701098143       -7.1795729881
  O        -6.3208037730       -1.2812141421       -5.7891801227
  O        -6.0546670581       -1.2647410752       -8.0219575549
  C        -1.9610306020        5.6962737072       -7.4797868569
  H        -1.8068881661        6.7616764611       -7.4798700689
  O        -2.4613788677        5.1953402046       -6.4147373301
  O        -1.7592038190        5.0404242691       -8.5376948407
  C        -1.7153677193        9.0065729983       -3.7807068554
  H        -1.3518565997        9.2891789052       -4.8285272378
  O        -1.7735635219        7.7204009534       -3.5311974415
  O        -1.9589811591        9.8892286280       -2.9296575010
  C         2.5176986766        8.6527359013       -4.1276241396
  H         2.7356319561        9.0838176512       -5.0545617483
  O         2.0941304229        7.4607563111       -4.0382054964
  O         2.6632020791        9.4136986823       -3.1567247192
  C         1.7405814703        5.3615037054       -8.2026998584
  H         1.4592813282        6.4433815072       -8.3446733349
  O         2.2712544771        5.0744229803       -7.0359036782
  O         1.5374971892        4.4786315137       -9.0204193621
  C         9.4791869119        2.6134878200        3.9079418032
  H         9.6264681644        3.4611325178        4.5867541287
  O         8.5294682966        2.7206869475        3.0468687327
  O        10.1884170796        1.5361363159        4.0354546634
  C         6.6320899766        7.0427804887        3.3240585285
  H         7.5183451153        7.1103565644        4.0025867163
  O         6.4921259472        6.1579139584        2.4473334656
  O         5.8014508194        7.8970951585        3.5804466065
  C         4.7468288793        5.8510846562        6.9391041765
  H         5.6837062732        5.7110173508        7.4566454645
  O         4.3315486404        4.9881730889        6.0840680113
  O         4.1390624477        6.9214380767        7.1338855679
  C         7.5642974957        1.7429307679        7.1823006621
  H         8.1116275708        2.6102062210        7.6466333920
  O         6.7423080014        2.0330978891        6.2208765696
  O         7.8434776238        0.5800715711        7.5931108165
     227
 i =        1, time =        1.000, E =        -7.0155520798
 Cd        -8.6193403492        0.4796317622        3.4771707372
 Cd        -5.8715346291       -0.2572068521        7.1143937452
 Cd        -8.4082088923       -2.1541322375        0.3852368354
 Cd        -6.8927269206       -3.2918072065        3.9610984343
 Cd        -3.6901794110       -3.7003816668        7.3823649643
 Cd        -6.4419685946       -6.2357453771        0.4642861738
 Cd        -4.3123531038       -6.8296054638        3.9052147383
 Cd        -6.1163722194        3.8609242193        2.9055605543
 Cd        -3.6066124026        2.8812232802        6.5903895521
 Cd        -6.7534171458        1.1872289907       -0.3192185383
 Cd        -4.0444039528        0.0755166306        3.0501750665
 Cd        -1.7741915849       -0.3125750191        6.8335543504
 Cd        -6.3660815150       -1.4624405849       -3.4401660621
 Cd        -4.3613470946       -3.1217843318       -0.1745565430
 Cd        -2.2426068776       -3.6215715229        3.6336012642
 Cd         0.1786960383       -3.9615873816        7.0369259229
 Cd        -4.2693582133       -5.9882095774       -2.9988601486
 Cd        -2.2487097791       -6.7966076418        0.6791757573
 Cd         0.0677847863       -7.3029844880        3.8542278752
 Cd        -4.0802694467        7.4119350521        2.4182654456
 Cd        -1.6107712398        6.4879354563        6.2509473770
 Cd        -4.3325122114        4.8128048839       -0.6769420351
 Cd        -1.8303863640        3.6695913014        3.1589410687
 Cd         0.4898037887        3.1633513255        6.7205073883
 Cd        -4.5996068575        2.0000974095       -4.0890098133
 Cd        -2.1628824021        1.0181238238       -0.4517472847
 Cd         0.1384254071       -0.0681654494        3.1344018099
 Cd         2.6424466201       -0.6635608244        6.8958760356
 Cd        -4.1540576112       -0.5351496483       -6.9611265792
 Cd        -2.2031723455       -1.8490971962       -3.4900270852
 Cd         0.0358070272       -2.8474696631       -0.0250966542
 Cd         2.4397136734       -3.8215544600        3.5304623395
 Cd         4.5938439513       -4.2151897480        6.5946655817
 Cd        -2.6316854938       -4.5699669727       -6.0785356775
 Cd        -0.3609673559       -6.1210353289       -3.0631250506
 Cd         1.9864107913       -6.8523269073       -0.0374573950
 Cd         4.3578764119       -7.5050276117        3.0973909747
 Cd        -2.4320501042        8.2867289602       -1.2003411001
 Cd         0.1211450512        6.7911387933        2.0747791884
 Cd         2.2580815283        6.3879416578        5.9826200677
 Cd        -2.2740323637        5.5405432187       -4.1121158100
 Cd         0.1544605721        4.6148578360       -0.9823269327
 Cd         2.6165149436        3.7533618450        2.4610371910
 Cd         4.3939103211        2.5015186585        5.6446916258
 Cd        -2.3864670035        3.0936943338       -7.5398986965
 Cd        -0.1312625721        1.7709088258       -4.3474126575
 Cd         2.1531539539        0.8600220732       -0.9631962247
 Cd         4.3034620329       -0.4402629617        2.5248206609
 Cd         6.4920147609       -0.6517874630        6.0104863436
 Cd         0.4042541846       -0.5927792237       -7.0621337733
 Cd         2.1512976161       -1.8410931038       -3.9633248482
 Cd         4.1299615650       -2.9780161170       -0.5482283072
 Cd         6.9198137567       -3.7969733500        2.8855418372
 Cd         1.0695365180       -4.7691788330       -6.7906797802
 Cd         3.6506167731       -5.7625053634       -3.6177043079
 Cd         5.7329465365       -6.5640100638       -0.3327617698
 Cd         2.4551081356        8.1223003946       -1.1565942297
 Cd         4.4053331530        7.2897965318        1.7948187217
 Cd         2.3804028885        5.2451952368       -4.8087129121
 Cd         4.8189636865        4.7184531657       -1.4283913520
 Cd         6.7582224939        3.8401512791        2.0311382024
 Cd         2.6217895773        2.7828924152       -7.7033760034
 Cd         4.8493191162        1.7846691758       -4.5231360844
 Cd         6.7276994941        1.0650045856       -0.9630992759
 Cd         8.8867398054        0.4155677555        2.4347976612
 Cd         4.3617820981       -0.9226177476       -7.7309305257
 Cd         6.7427629777       -1.9756113985       -4.2012655740
 Cd         8.5291293068       -2.6207995365       -0.2527791875
 Se        -9.0548165502        0.2429076753        0.9183064228
 Se        -6.3727720925       -0.6564785224        4.4183145203
 Se        -3.9345246612       -1.3489304690        8.2965738318
 Se        -6.5831307523       -3.7425361265        1.3880795169
 Se        -4.5790887689       -4.2748469357        4.8597436429
 Se        -4.6122392463       -7.7766315991        1.5328285513
 Se        -6.6423038790        3.9855754436        0.4576840824
 Se        -4.0719831901        2.6208490634        3.9143090108
 Se        -1.6333141714        2.0117502430        7.9251801176
 Se        -6.7117194316        0.9829214018       -3.1654686540
 Se        -4.4070832747       -0.2111935789        0.3948844686
 Se        -2.0531362433       -1.1153459172        4.2593985547
 Se         0.4060016258       -1.5661442874        8.0651163147
 Se        -4.4160903859       -3.1300058449       -2.8046819001
 Se        -2.2374400926       -4.0915967165        0.9472079563
 Se         0.1530551154       -4.8127585329        4.4858127221
 Se        -2.4165628384       -7.4206628597       -2.0539460976
 Se        -0.0669477918       -7.8791817200        1.3095367896
 Se        -4.5521794020        7.5948523056       -0.0126181525
 Se        -1.8467847178        6.3633068127        3.5400944642
 Se         0.4037082756        5.8261625188        7.5859304174
 Se        -4.4660720114        4.5539745854       -3.3489589841
 Se        -2.0809926040        3.7152525796        0.3431813548
 Se         0.4982394148        2.6969984753        3.7286928268
 Se         2.7718029473        1.9958781962        7.6262583555
 Se        -4.6132239684        2.0747900957       -6.9049180071
 Se        -2.2789017024        0.8535296758       -3.1261015388
 Se         0.0145586040       -0.1632211336        0.3853996205
 Se         2.3129685071       -1.3189225712        3.9990285086
 Se         4.8631650018       -1.8842979400        7.7354538795
 Se        -2.0702021374       -1.9664218976       -6.4603902357
 Se        -0.0447160447       -3.1599455152       -2.8087930786
 Se         2.2323278981       -4.2314736377        0.7809424411
 Se         4.8362465878       -4.9531100621        4.0967232197
 Se        -0.7551454787       -6.2848695084       -5.8413976757
 Se         1.9250165778       -7.4790890706       -2.6076450568
 Se         4.2593620370       -8.3792308643        0.7363881078
 Se         0.0356352839        7.3686370249       -0.4913548980
 Se         2.3809323946        6.5252192757        3.1424958202
 Se         0.0437262494        4.4288419760       -3.5940121780
 Se         2.5164014425        3.6274380075       -0.0568533295
 Se         4.7727187545        2.4661798640        3.1253266971
 Se         0.0455207478        1.9300004747       -6.9705298592
 Se         2.2758455735        0.7648491898       -3.6570781254
 Se         4.3766690212       -0.2853644558       -0.0178190159
 Se         6.9677302090       -1.1294322942        3.5582339742
 Se         2.2370260459       -2.2682062134       -6.6837773374
 Se         4.3737600979       -3.1974981928       -3.2156781648
 Se         6.4331648912       -4.1116921862        0.4129528811
 Se         4.8515900798        7.5524274200       -0.7459425238
 Se         4.8775081053        4.5489993143       -4.0122560558
 Se         7.0856285909        3.5934783082       -0.6429102823
 Se         4.7817360035        1.5264412926       -7.5555514452
 Se         6.9185967607        0.6112268755       -3.7073784467
 Se         9.1068975359       -0.0626821087       -0.0923532388
  C         6.9966812197       -6.9498556950       -2.8612688260
  H         7.7649322095       -7.1224747738       -3.6684216540
  O         5.8440503677       -6.4672455971       -3.1401095076
  O         7.2886173809       -7.2741846772       -1.6936790195
  C         3.3950588214       -6.2673147765       -6.9491894814
  H         4.3444066225       -6.8936096686       -7.0753272229
  O         3.0188514735       -5.7909262109       -5.7820536455
  O         2.6177490259       -6.1689575457       -7.9240177424
  C         6.3106282484       -2.9078453996       -7.4910731700
  H         7.1299137504       -3.7048862282       -7.4466889051
  O         6.0085481953       -2.3182203059       -6.3474761042
  O         5.9394073492       -2.4742801526       -8.6124986719
  C         8.9774608684       -3.3708775545       -3.4296549627
  H         9.9250180562       -3.8774829974       -3.1826003730
  O         8.5683237332       -3.4149065398       -4.6046397420
  O         8.2717693839       -2.6966972060       -2.5200780157
  C         9.7980864817       -4.6252055469        2.1810027861
  H        10.6408655401       -5.3318691344        2.3887999993
  O         9.7471517937       -4.1805503712        0.9926138208
  O         9.0286770871       -4.5681624057        3.1870581708
  C        -2.8217358501       -8.8884506324        5.3598596501
  H        -2.4154187803       -9.9024293192        5.4343946394
  O        -1.9847518729       -7.9306802818        5.0423604914
  O        -4.0904676957       -8.7274910854        5.4044486289
  C         2.9969251396       -8.6916357143        5.2874245897
  H         2.6967725338       -9.0398269484        6.2934215078
  O         1.9993662377       -8.3579164213        4.5594476094
  O         4.2233678543       -8.6006682582        4.9156138045
  C         2.8793109881       -5.7053261125        8.2324380652
  H         2.3955873073       -6.3773024893        8.9303283437
  O         2.2190157445       -4.8088657828        7.6163982557
  O         4.1498345000       -5.9035259926        8.1536573140
  C        -2.5347163232       -5.9173463556        8.5220220443
  H        -2.0052498086       -6.7390725628        9.0096019785
  O        -1.9213927958       -5.2584055130        7.5983517373
  O        -3.6522445937       -5.5084604346        8.8928162179
  C        -6.8630706203        2.3027039142        7.3892243194
  H        -7.2086193538        3.3071349018        7.3885257928
  O        -5.6213504134        2.1591368019        7.5337465465
  O        -7.6696010341        1.3702994148        7.1999581072
  C        -4.1169923058        6.2828122144        7.2282038817
  H        -5.2418933127        6.2896177269        7.3832000201
  O        -3.5267287586        5.2290675991        6.7738657034
  O        -3.5911281388        7.4673591159        7.3180912353
  C        -6.2567491617        7.1462545564        4.0780880639
  H        -7.2111390447        7.1649409639        4.6689854642
  O        -5.8090805750        6.0478945358        3.6279046448
  O        -5.6128401638        8.2207727380        3.8487784170
  C        -9.2742349389        2.9617651551        4.4604727509
  H        -9.7855372140        3.8838940690        4.7760086716
  O        -8.0588612832        3.0119147407        4.1193000092
  O       -10.0811623502        1.9793213265        4.3922230935
  C        -9.6032898285       -3.5282259348        4.2551730202
  H       -10.5971720209       -3.6001750875        4.7566807035
  O        -9.3833377827       -2.7227996247        3.2942695064
  O        -8.6786968604       -4.3017402754        4.7630240500
  C        -5.4081380557       -6.0792439373       -6.1562052338
  H        -6.0546960796       -6.5859836395       -6.8890942905
  O        -5.3110892244       -6.5041329068       -4.9652640823
  O        -4.7984767530       -5.0927685071       -6.6853417665
  C        -7.4875002458       -7.2705893968       -1.8347914114
  H        -7.8388434959       -7.7173330376       -2.7530342297
  O        -6.3887807115       -6.5550237991       -1.8843419982
  O        -8.0717445784       -7.4409554096       -0.7458664432
  C        -9.2562931308       -3.4269924750       -2.1219806473
  H        -9.5270787848       -4.0663584857       -2.9594189931
  O        -8.1698605673       -2.7554279334       -2.2727242789
  O        -9.8242700730       -3.4939964136       -1.0092389007
  C        -6.7207160246       -1.5101346697       -7.0046114691
  H        -7.7450574417       -1.9674181007       -7.1698505571
  O        -6.3198788666       -1.2781116418       -5.7990710157
  O        -6.0633819618       -1.2634849471       -8.0155635098
  C        -1.9629200751        5.6954930032       -7.4853289658
  H        -1.7770888886        6.7764005651       -7.4923242406
  O        -2.4612034110        5.1867621448       -6.4087509659
  O        -1.7563846332        5.0405042711       -8.5284121788
  C        -1.7169055989        9.0075230705       -3.7839126367
  H        -1.3493405476        9.2660238074       -4.8465614694
  O        -1.7700299124        7.7195379625       -3.5246537835
  O        -1.9637454460        9.8896359354       -2.9408900739
  C         2.5062511330        8.6538997967       -4.1272903639
  H         2.7131102182        9.0638249498       -5.0476060874
  O         2.0944604118        7.4532979248       -4.0307200060
  O         2.6627701790        9.4112040104       -3.1552939077
  C         1.7411735994        5.3672444989       -8.1968788130
  H         1.4358383610        6.4416008070       -8.3632925476
  O         2.2781556286        5.0766546480       -7.0408058733
  O         1.5312138414        4.4834047150       -9.0176269665
  C         9.4769061630        2.6096303286        3.8999931641
  H         9.6131090334        3.4671477718        4.5843902861
  O         8.5280500554        2.7173778770        3.0492198869
  O        10.1885936040        1.5401846418        4.0331476668
  C         6.6326689745        7.0383228448        3.3281954431
  H         7.5082674956        7.1289998248        4.0070788575
  O         6.4945318360        6.1604632147        2.4465758944
  O         5.7955368546        7.9030403392        3.5813446541
  C         4.7447621747        5.8524909633        6.9354161095
  H         5.7085862008        5.7040540943        7.4370666698
  O         4.3286312250        4.9885676859        6.0815503827
  O         4.1457454256        6.9224355228        7.1372299780
  C         7.5603419781        1.7452800837        7.1879033157
  H         8.1158840311        2.6116602203        7.6593692779
  O         6.7459145761        2.0302655938        6.2244768633
  O         7.8435446238        0.5821781742        7.5895797880
     227
 i =        2, time =        2.000, E =        -7.0302541565
 Cd        -8.6169888860        0.4782754241        3.4767707074
 Cd        -5.8707598543       -0.2577024710        7.1136385575
 Cd        -8.4088389024       -2.1551649973        0.3836829681
 Cd        -6.8896845476       -3.2939272765        3.9621585961