     227
 i =        0, time =        0.000, E =       -18.6481609008
 Cd        -8.6216924880        0.4810107428        3.4775887729
 Cd        -5.8723589632       -0.2566559957        7.1151373767
 Cd        -8.4076147924       -2.1531404527        0.3867588804
 Cd        -6.8957642261       -3.2896665849        3.9600318291
 Cd        -3.6930098048       -3.6992689615        7.3819491709
 Cd        -6.4429261463       -6.2347087238        0.4622469067
 Cd        -4.3123952394       -6.8285875372        3.9039095072
 Cd        -6.1141073353        3.8626235599        2.9066844924
 Cd        -3.6048790416        2.8797284733        6.5917986711
 Cd        -6.7531255596        1.1841266196       -0.3182182747
 Cd        -4.0437606329        0.0729837467        3.0511954168
 Cd        -1.7753257667       -0.3121054857        6.8316599018
 Cd        -6.3661028473       -1.4630135273       -3.4383357626
 Cd        -4.3602814436       -3.1214810613       -0.1759283953
 Cd        -2.2424276819       -3.6242998489        3.6335413818
 Cd         0.1757294635       -3.9625201566        7.0364714760
 Cd        -4.2692200317       -5.9860442556       -3.0005266361
 Cd        -2.2482225396       -6.7972628816        0.6786391664
 Cd         0.0669003827       -7.3030327295        3.8545421700
 Cd        -4.0792754193        7.4105475565        2.4175118797
 Cd        -1.6116442377        6.4880648240        6.2478272306
 Cd        -4.3308002626        4.8127262164       -0.6762739309
 Cd        -1.8326132452        3.6694977750        3.1598212265
 Cd         0.4939817277        3.1637060931        6.7202662426
 Cd        -4.5980154021        1.9988297698       -4.0880170010
 Cd        -2.1651194586        1.0165564496       -0.4536921834
 Cd         0.1376109507       -0.0659106884        3.1336818174
 Cd         2.6419074521       -0.6636939286        6.8958319365
 Cd        -4.1515129292       -0.5348426091       -6.9620217917
 Cd        -2.2012490343       -1.8491984656       -3.4894107829
 Cd         0.0359311218       -2.8494155653       -0.0264680683
 Cd         2.4407298775       -3.8224684908        3.5289587884
 Cd         4.5907434619       -4.2169180472        6.5928471603
 Cd        -2.6321953796       -4.5685798778       -6.0773989300
 Cd        -0.3638438279       -6.1221236347       -3.0620735359
 Cd         1.9882729153       -6.8506852632       -0.0376753302
 Cd         4.3604701588       -7.5063202656        3.0981086138
 Cd        -2.4313710890        8.2839908015       -1.2010761441
 Cd         0.1210964618        6.7915494583        2.0748938605
 Cd         2.2602783261        6.3879934074        5.9824457591
 Cd        -2.2743307721        5.5403016700       -4.1096429978
 Cd         0.1552258413        4.6164378819       -0.9814446932
 Cd         2.6173372932        3.7540356816        2.4616712460
 Cd         4.3934694910        2.5024270436        5.6448470259
 Cd        -2.3839877703        3.0961459608       -7.5397423510
 Cd        -0.1308699873        1.7716472388       -4.3458913396
 Cd         2.1522040622        0.8595996928       -0.9600505658
 Cd         4.3027041934       -0.4425155449        2.5248589789
 Cd         6.4943132815       -0.6514444341        6.0110723312
 Cd         0.4032906214       -0.5920449882       -7.0625722312
 Cd         2.1504065746       -1.8410095193       -3.9631978812
 Cd         4.1282053355       -2.9764966895       -0.5499119195
 Cd         6.9189885741       -3.8001688729        2.8840486736
 Cd         1.0693858855       -4.7693596381       -6.7909688629
 Cd         3.6529341800       -5.7620820022       -3.6150795142
 Cd         5.7341856059       -6.5625995016       -0.3323817960
 Cd         2.4532379782        8.1225833618       -1.1556872380
 Cd         4.4025673150        7.2904811152        1.7928276254
 Cd         2.3800547108        5.2453457502       -4.8107637235
 Cd         4.8184663347        4.7191125514       -1.4277792117
 Cd         6.7589411702        3.8390778732        2.0295448973
 Cd         2.6210634084        2.7844913241       -7.7035228004
 Cd         4.8495943395        1.7843685348       -4.5225056138
 Cd         6.7261500983        1.0662237140       -0.9642295531
 Cd         8.8881450478        0.4141445330        2.4369093904
 Cd         4.3615782352       -0.9213178924       -7.7328888960
 Cd         6.7438649008       -1.9767569930       -4.2031112584
 Cd         8.5272445020       -2.6218905711       -0.2551455218
 Se        -9.0557725106        0.2424574140        0.9180313808
 Se        -6.3745872764       -0.6570220647        4.4225742627
 Se        -3.9358548519       -1.3506397678        8.2925868769
 Se        -6.5830028390       -3.7408669090        1.3890860046
 Se        -4.5802302415       -4.2716541219        4.8585926421
 Se        -4.6110671623       -7.7792240778        1.5343213278
 Se        -6.6407812351        3.9866809498        0.4586064126
 Se        -4.0705866514        2.6241591830        3.9150270775
 Se        -1.6315747320        2.0143859544        7.9219454430
 Se        -6.7106235468        0.9827493806       -3.1628202938
 Se        -4.4077684895       -0.2106461950        0.3970531668
 Se        -2.0534879979       -1.1190641497        4.2604482105
 Se         0.4069246601       -1.5676855049        8.0617057342
 Se        -4.4126107232       -3.1307459794       -2.8028288282
 Se        -2.2371864822       -4.0884616040        0.9473336128
 Se         0.1541797359       -4.8148952714        4.4843326207
 Se        -2.4147106009       -7.4199706225       -2.0529393442
 Se        -0.0662571417       -7.8800811154        1.3078284855
 Se        -4.5519687636        7.5920037884       -0.0122560791
 Se        -1.8482840651        6.3647212661        3.5390459072
 Se         0.4006735392        5.8241498358        7.5878867146
 Se        -4.4655945585        4.5529209660       -3.3484418515
 Se        -2.0798083538        3.7153034916        0.3451575142
 Se         0.4973892782        2.6967113851        3.7286137790
 Se         2.7724753484        1.9958260876        7.6298945277
 Se        -4.6126224962        2.0736182894       -6.9031574659
 Se        -2.2770211290        0.8531533747       -3.1284312065
 Se         0.0138865169       -0.1636477002        0.3858468104
 Se         2.3115473387       -1.3198431962        4.0017354986
 Se         4.8624545925       -1.8855864388        7.7371297607
 Se        -2.0700877949       -1.9675257511       -6.4603372509
 Se        -0.0447057629       -3.1582708631       -2.8090856920
 Se         2.2343306950       -4.2299664240        0.7817840723
 Se         4.8342987615       -4.9516929708        4.0974643468
 Se        -0.7556003326       -6.2829108386       -5.8406699955
 Se         1.9243057511       -7.4784768035       -2.6074198353
 Se         4.2543989663       -8.3809591814        0.7363809319
 Se         0.0386925703        7.3677075300       -0.4939635450
 Se         2.3791568525        6.5289221229        3.1400383851
 Se         0.0465974103        4.4270318221       -3.5936563407
 Se         2.5167269427        3.6273521599       -0.0581806204
 Se         4.7705604635        2.4670139639        3.1233546104
 Se         0.0435933033        1.9323944164       -6.9695738842
 Se         2.2733127965        0.7623703678       -3.6584263160
 Se         4.3816175435       -0.2841549253       -0.0177063702
 Se         6.9670500347       -1.1290204494        3.5565582379
 Se         2.2410869402       -2.2702007814       -6.6798205275
 Se         4.3723294721       -3.1971869108       -3.2130677403
 Se         6.4331938555       -4.1098532443        0.4136420186
 Se         4.8503033307        7.5509093293       -0.7463548497
 Se         4.8776288797        4.5477652435       -4.0091414448
 Se         7.0830986217        3.5950723552       -0.6434567968
 Se         4.7810064642        1.5273410534       -7.5566303287
 Se         6.9188050062        0.6130038217       -3.7081238627
 Se         9.1066871843       -0.0609359671       -0.0919647969
  C         6.9955771113       -6.9586634775       -2.8583426301
  H         7.7780160969       -7.1271873265       -3.6573399650
  O         5.8389952916       -6.4652991204       -3.1445809228
  O         7.2920676004       -7.2683568805       -1.6893132711
  C         3.3939431960       -6.2668607509       -6.9513074648
  H         4.3245440932       -6.8689211647       -7.0591687882
  O         3.0202466073       -5.7860511295       -5.7843136273
  O         2.6220129789       -6.1746538788       -7.9242101403
  C         6.3116555909       -2.9071154185       -7.4921130606
  H         7.0978863851       -3.7212906458       -7.4285512081
  O         6.0096715894       -2.3219711192       -6.3505932827
  O         5.9403243477       -2.4750431756       -8.6116316973
  C         8.9837561036       -3.3697375837       -3.4349055328
  H         9.9249943929       -3.8864043165       -3.1840078659
  O         8.5659407989       -3.4209184445       -4.6048832464
  O         8.2714489672       -2.6971151254       -2.5207012617
  C         9.7902109758       -4.6282247391        2.1768529346
  H        10.6284324694       -5.3337138149        2.3552924638
  O         9.7484501532       -4.1824896055        0.9942458601
  O         9.0219926648       -4.5705851174        3.1873629795
  C        -2.8252708508       -8.8894178348        5.3653894160
  H        -2.3915771747       -9.8892286280        5.4446685031
  O        -1.9808601030       -7.9304545651        5.0436955975
  O        -4.0908415257       -8.7280019527        5.4030844137
  C         3.0047406823       -8.6887063298        5.2919739424
  H         2.6853413808       -9.0312323512        6.2714246943
  O         1.9985977812       -8.3553887881        4.5599054594
  O         4.2197147413       -8.6069092298        4.9235206312
  C         2.8732291572       -5.7090624943        8.2322507888
  H         2.4095730423       -6.3582442170        8.9295273658
  O         2.2236878889       -4.8031284854        7.6183804854
  O         4.1525405945       -5.8988692439        8.1468427445
  C        -2.5324052264       -5.9090323801        8.5168983878
  H        -2.0058427467       -6.7599986745        9.0204193621
  O        -1.9189018681       -5.2527647032        7.5983339134
  O        -3.6521974131       -5.4981014961        8.8936623702
  C        -6.8661340661        2.3082426882        7.3884767521
  H        -7.2433530482        3.2983326111        7.3747512577
  O        -5.6189307919        2.1553364867        7.5292857639
  O        -7.6694328727        1.3672322100        7.2032576312
  C        -4.1128935570        6.2776012356        7.2258109093
  H        -5.2184092536        6.2949225170        7.4003980339
  O        -3.5215502414        5.2331222329        6.7794929280
  O        -3.5956064510        7.4679880815        7.3184340370
  C        -6.2584500423        7.1467273309        4.0778865765
  H        -7.2018864753        7.1620259062        4.6862261037
  O        -5.8042352338        6.0508881806        3.6277903665
  O        -5.6141473350        8.2227071687        3.8530055117
  C        -9.2670155991        2.9624473135        4.4549609073
  H        -9.7760873251        3.8307467380        4.7753730710
  O        -8.0580447847        3.0137717908        4.1153681461
  O       -10.0869615960        1.9755230626        4.3964141791
  C        -9.5997958208       -3.5202239981        4.2555074891
  H       -10.6284324694       -3.6062117458        4.7363993397
  O        -9.3836198173       -2.7271085544        3.2939504316
  O        -8.6749593009       -4.3055307223        4.7674147240
  C        -5.4063829718       -6.0836320759       -6.1576393485
  H        -6.0390997038       -6.5934387315       -6.8768176703
  O        -5.3157147411       -6.5042627408       -4.9638375967
  O        -4.7997118332       -5.0931497246       -6.6842330004
  C        -7.4812021438       -7.2683192216       -1.8337008205
  H        -7.8430239833       -7.7214409635       -2.7403108931
  O        -6.3847231004       -6.5596142310       -1.8855223803
  O        -8.0870004405       -7.4369608581       -0.7449951352
  C        -9.2637717352       -3.4248031045       -2.1287629167
  H        -9.5435102925       -4.0726156799       -2.9624854104
  O        -8.1685743898       -2.7562864935       -2.2769679175
  O        -9.8293124780       -3.4993302663       -1.0042472880
  C        -6.7198117275       -1.5155721631       -7.0057360974
  H        -7.7266400310       -1.9701098143       -7.1795729881
  O        -6.3208037730       -1.2812141421       -5.7891801227
  O        -6.0546670581       -1.2647410752       -8.0219575549
  C        -1.9610306020        5.6962737072       -7.4797868569
  H        -1.8068881661        6.7616764611       -7.4798700689
  O        -2.4613788677        5.1953402046       -6.4147373301
  O        -1.7592038190        5.0404242691       -8.5376948407
  C        -1.7153677193        9.0065729983       -3.7807068554
  H        -1.3518565997        9.2891789052       -4.8285272378
  O        -1.7735635219        7.7204009534       -3.5311974415
  O        -1.9589811591        9.8892286280       -2.9296575010
  C         2.5176986766        8.6527359013       -4.1276241396
  H         2.7356319561        9.0838176512       -5.0545617483
  O         2.0941304229        7.4607563111       -4.0382054964
  O         2.6632020791        9.4136986823       -3.1567247192
  C         1.7405814703        5.3615037054       -8.2026998584
  H         1.4592813282        6.4433815072       -8.3446733349
  O         2.2712544771        5.0744229803       -7.0359036782
  O         1.5374971892        4.4786315137       -9.0204193621
  C         9.4791869119        2.6134878200        3.9079418032
  H         9.6264681644        3.4611325178        4.5867541287
  O         8.5294682966        2.7206869475        3.0468687327
  O        10.1884170796        1.5361363159        4.0354546634
  C         6.6320899766        7.0427804887        3.3240585285
  H         7.5183451153        7.1103565644        4.0025867163
  O         6.4921259472        6.1579139584        2.4473334656
  O         5.8014508194        7.8970951585        3.5804466065
  C         4.7468288793        5.8510846562        6.9391041765
  H         5.6837062732        5.7110173508        7.4566454645
  O         4.3315486404        4.9881730889        6.0840680113
  O         4.1390624477        6.9214380767        7.1338855679
  C         7.5642974957        1.7429307679        7.1823006621
  H         8.1116275708        2.6102062210        7.6466333920
  O         6.7423080014        2.0330978891        6.2208765696
  O         7.8434776238        0.5800715711        7.5931108165
     227
 i =        1, time =        1.000, E =       -18.6577048132
 Cd        -8.6193448566        0.4796534691        3.4771741517
 Cd        -5.8715500513       -0.2571738451        7.1143964668
 Cd        -8.4082358859       -2.1541486135        0.3852234516
 Cd        -6.8927330614       -3.2918009650        3.9610945205
 Cd        -3.6901787753       -3.7004088470        7.3823916346
 Cd        -6.4419879737       -6.2357680809        0.4642622222
 Cd        -4.3123487513       -6.8296351906        3.9052345221
 Cd        -6.1163987251        3.8609354754        2.9055812434
 Cd        -3.6066407255        2.8812391060        6.5904157852
 Cd        -6.7534391499        1.1872452691       -0.3192286142
 Cd        -4.0444387953        0.0755196048        3.0501886646
 Cd        -1.7741832303       -0.3125837289        6.8336022345
 Cd        -6.3661118999       -1.4624500798       -3.4401814671
 Cd        -4.3613635301       -3.1217796870       -0.1745483784
 Cd        -2.2426142947       -3.6215789189        3.6336151596
 Cd         0.1787037212       -3.9615992157        7.0369485237
 Cd        -4.2693945741       -5.9882337349       -2.9988702260
 Cd        -2.2487163134       -6.7966350588        0.6791536249
 Cd         0.0677857052       -7.3030121700        3.8542385661
 Cd        -4.0803070038        7.4119293442        2.4182865147
 Cd        -1.6108098109        6.4879359513        6.2509726078
 Cd        -4.3325505650        4.8128159929       -0.6769594321
 Cd        -1.8304053561        3.6696051529        3.1589381647
 Cd         0.4898069736        3.1633362540        6.7205508812
 Cd        -4.5996374170        2.0001246835       -4.0890222247
 Cd        -2.1629093587        1.0181351803       -0.4517605406
 Cd         0.1384327845       -0.0681663229        3.1344228809
 Cd         2.6424396723       -0.6635582265        6.8959231335
 Cd        -4.1541074982       -0.5351512186       -6.9611330517
 Cd        -2.2031883601       -1.8490977473       -3.4900361005
 Cd         0.0358058095       -2.8475034744       -0.0251013057
 Cd         2.4397140173       -3.8215704749        3.5304650563
 Cd         4.5938300688       -4.2152092299        6.5946989055
 Cd        -2.6317110935       -4.5699830096       -6.0785528683
 Cd        -0.3609633706       -6.1210790834       -3.0631425911
 Cd         1.9864074489       -6.8523646649       -0.0374619214
 Cd         4.3578639611       -7.5050432723        3.0974057618
 Cd        -2.4320435953        8.2867381537       -1.2003845950
 Cd         0.1211452783        6.7911545204        2.0747787588
 Cd         2.2581275889        6.3879389741        5.9826486815
 Cd        -2.2740343880        5.5405602440       -4.1121415510
 Cd         0.1544561333        4.6148755165       -0.9823473368
 Cd         2.6165246806        3.7533606294        2.4610408047
 Cd         4.3939411619        2.5015451415        5.6447143646
 Cd        -2.3864721758        3.0937379221       -7.5398958169
 Cd        -0.1312625503        1.7709400290       -4.3474229741
 Cd         2.1531868201        0.8600324302       -0.9632097764
 Cd         4.3034894960       -0.4402484810        2.5248193589
 Cd         6.4920419518       -0.6517627828        6.0105131878
 Cd         0.4042473682       -0.5927848359       -7.0621390339
 Cd         2.1513249407       -1.8411113470       -3.9633411673
 Cd         4.1299970516       -2.9780225167       -0.5482392039
 Cd         6.9198293855       -3.7969742580        2.8855402317
 Cd         1.0695860051       -4.7692124988       -6.7906756178
 Cd         3.6506473548       -5.7625274833       -3.6177251350
 Cd         5.7329730297       -6.5640263483       -0.3327895212
 Cd         2.4551109076        8.1223124257       -1.1566495267
 Cd         4.4053811113        7.2897970145        1.7948382811
 Cd         2.3804090667        5.2452292596       -4.8087200546
 Cd         4.8189921639        4.7184678393       -1.4284103029
 Cd         6.7582494942        3.8401594887        2.0311455684
 Cd         2.6217816687        2.7829355908       -7.7033838466
 Cd         4.8493459816        1.7846835317       -4.5231395434
 Cd         6.7277361215        1.0650087526       -0.9631235877
 Cd         8.8867484883        0.4155905979        2.4348035157
 Cd         4.3618254941       -0.9226480615       -7.7309188805
 Cd         6.7427875314       -1.9756298476       -4.2012690219
 Cd         8.5291393798       -2.6208101404       -0.2528031720
 Se        -9.0547528630        0.2428785680        0.9183156705
 Se        -6.3727536547       -0.6565009468        4.4183074570
 Se        -3.9345315409       -1.3489571606        8.2965162856
 Se        -6.5831063987       -3.7425403877        1.3880604240
 Se        -4.5790521669       -4.2748630660        4.8597379331
 Se        -4.6122320255       -7.7765556036        1.5328475296
 Se        -6.6422434299        3.9855395959        0.4576850900
 Se        -4.0719334696        2.6208412017        3.9142936297
 Se        -1.6333132757        2.0117540244        7.9250825972
 Se        -6.7116737773        0.9828972050       -3.1654336299
 Se        -4.4070581157       -0.2111894277        0.3949044458
 Se        -2.0531153390       -1.1153346300        4.2593763438
 Se         0.4059975182       -1.5661741873        8.0650430306
 Se        -4.4160507156       -3.1299893117       -2.8046663652
 Se        -2.2374298120       -4.0915767739        0.9472075923
 Se         0.1530521572       -4.8127366885        4.4857963669
 Se        -2.4165659305       -7.4205812012       -2.0539514001
 Se        -0.0669406374       -7.8791124614        1.3095614313
 Se        -4.5521019138        7.5948336505       -0.0126091726
 Se        -1.8467531938        6.3633024891        3.5400778870
 Se         0.4037025872        5.8261592729        7.5858528989
 Se        -4.4660155038        4.5539565270       -3.3489407910
 Se        -2.0809618994        3.7152400959        0.3431649103
 Se         0.4982173589        2.6969984025        3.7286810811
 Se         2.7717860480        1.9958578489        7.6261613448
 Se        -4.6131533948        2.0747403655       -6.9049027808
 Se        -2.2788738177        0.8534979973       -3.1261041453
 Se         0.0145635860       -0.1632298658        0.3854016117
 Se         2.3129805458       -1.3188993072        3.9990070934
 Se         4.8631545188       -1.8843080063        7.7353667623
 Se        -2.0701984621       -1.9664127179       -6.4603669778
 Se        -0.0447198372       -3.1599173362       -2.8087815067
 Se         2.2323150759       -4.2314382507        0.7809315226
 Se         4.8362316370       -4.9530859443        4.0967232975
 Se        -0.7551533585       -6.2847921983       -5.8413902809
 Se         1.9250044797       -7.4789978176       -2.6076154542
 Se         4.2593661750       -8.3791625383        0.7364113127
 Se         0.0356496083        7.3686047079       -0.4912940603
 Se         2.3809070922        6.5252129683        3.1424769469
 Se         0.0437265634        4.4288033755       -3.5939960932
 Se         2.5163633812        3.6274438052       -0.0568615641
 Se         4.7726910322        2.4661716698        3.1253280949
 Se         0.0455171246        1.9299300589       -6.9704979818
 Se         2.2758065185        0.7648299130       -3.6570451857
 Se         4.3766348236       -0.2853741833       -0.0178048731
 Se         6.9676941576       -1.1294555227        3.5582359311
 Se         2.2369671584       -2.2681612207       -6.6837676557
 Se         4.3737003907       -3.1974779674       -3.2156353928
 Se         6.4331248545       -4.1116832438        0.4129769942
 Se         4.8515238512        7.5524057703       -0.7458889398
 Se         4.8774404356        4.5489647870       -4.0122313939
 Se         7.0855635889        3.5934603881       -0.6428620813
 Se         4.7816737936        1.5264250875       -7.5555405552
 Se         6.9185317123        0.6112152760       -3.7073475414
 Se         9.1068555378       -0.0627139062       -0.0923072710
  C         6.9966686033       -6.9497867624       -2.8612720201
  H         7.7649322095       -7.1224747738       -3.6684216540
  O         5.8439624674       -6.4672217036       -3.1400247747
  O         7.2885392922       -7.2741147056       -1.6936330058
  C         3.3950895118       -6.2672770421       -6.9491521753
  H         4.3444066225       -6.8936096686       -7.0753272229
  O         3.0187876310       -5.7908224897       -5.7819958530
  O         2.6176650653       -6.1688363030       -7.9239401636
  C         6.3106269144       -2.9078685275       -7.4909957415
  H         7.1299137504       -3.7048862282       -7.4466889051
  O         6.0084984139       -2.3181457730       -6.3474659698
  O         5.9392882654       -2.4741874773       -8.6124174622
  C         8.9774055447       -3.3708914952       -3.4296278544
  H         9.9250180562       -3.8774829974       -3.1826003730
  O         8.5682020307       -3.4148311283       -4.6045786462
  O         8.2716651011       -2.6967120411       -2.5200687203
  C         9.7980341783       -4.6251850223        2.1809820386
  H        10.6408655401       -5.3318691344        2.3887999993
  O         9.7470635966       -4.1804458356        0.9926055758
  O         9.0285389350       -4.5680925386        3.1870344018
  C        -2.8217149938       -8.8883958986        5.3598600097
  H        -2.4154187803       -9.9024293192        5.4343946394
  O        -1.9847521843       -7.9305860972        5.0422769020
  O        -4.0904461900       -8.7273401352        5.4043658762
  C         2.9969106980       -8.6915779833        5.2874335312
  H         2.6967725338       -9.0398269484        6.2934215078
  O         1.9993665261       -8.3578069697        4.5593999979
  O         4.2233448386       -8.6006113347        4.9155668905
  C         2.8792818618       -5.7053298989        8.2323933955
  H         2.3955873073       -6.3773024893        8.9303283437
  O         2.2190195412       -4.8088202127        7.6162660604
  O         4.1498227275       -5.9034310625        8.1535173006
  C        -2.5347028571       -5.9173529360        8.5219554782
  H        -2.0052498086       -6.7390725628        9.0096019785
  O        -1.9214023508       -5.2582518543        7.5983122981
  O        -3.6522347158       -5.5083515427        8.8926873826
  C        -6.8630592379        2.3027128593        7.3891483961
  H        -7.2086193538        3.3071349018        7.3885257928
  O        -5.6212853440        2.1590607458        7.5336446759
  O        -7.6694632062        1.3702150426        7.1999416001
  C        -4.1170103161        6.2827780466        7.2281511842
  H        -5.2418933127        6.2896177269        7.3832000201
  O        -3.5266336490        5.2290211302        6.7737893897
  O        -3.5910020158        7.4672771349        7.3179789904
  C        -6.2567232057        7.1462076508        4.0781075789
  H        -7.2111390447        7.1649409639        4.6689854642
  O        -5.8089771754        6.0478751025        3.6278586571
  O        -5.6127072397        8.2206708386        3.8487091304
  C        -9.2741757803        2.9617318416        4.4604908044
  H        -9.7855372140        3.8838940690        4.7760086716
  O        -8.0587747963        3.0118647146        4.1192516175
  O       -10.0810429792        1.9792288945        4.3921928006
  C        -9.6032493447       -3.5282030436        4.2551489591
  H       -10.5971720209       -3.6001750875        4.7566807035
  O        -9.3831774442       -2.7227599678        3.2942793293
  O        -8.6786103024       -4.3016767578        4.7629886174
  C        -5.4081388678       -6.0792045920       -6.1561632185
  H        -6.0546960796       -6.5859836395       -6.8890942905
  O        -5.3109811708       -6.5040228138       -4.9651838399
  O        -4.7983594790       -5.0927167368       -6.6852583809
  C        -7.4874748041       -7.2705261965       -1.8348021110
  H        -7.8388434959       -7.7173330376       -2.7530342297
  O        -6.3887037755       -6.5549252699       -1.8842603840
  O        -8.0716211449       -7.4408460615       -0.7457852018
  C        -9.2562352797       -3.4270143194       -2.1219620906
  H        -9.5270787848       -4.0663584857       -2.9594189931
  O        -8.1697744064       -2.7553711834       -2.2726541760
  O        -9.8241477537       -3.4939322384       -1.0091774212
  C        -6.7206927237       -1.5101723110       -7.0045698424
  H        -7.7450574417       -1.9674181007       -7.1698505571
  O        -6.3197200794       -1.2781508729       -5.7990167156
  O        -6.0632554238       -1.2634865931       -8.0154765341
  C        -1.9628772001        5.6954831711       -7.4852885911
  H        -1.7770888886        6.7764005651       -7.4923242406
  O        -2.4611296170        5.1866757497       -6.4087181129
  O        -1.7564080698        5.0403743318       -8.5282999924
  C        -1.7168633758        9.0074760969       -3.7839172104
  H        -1.3493405476        9.2660238074       -4.8465614694
  O        -1.7700960387        7.7194699907       -3.5245759975
  O        -1.9637628366        9.8894951489       -2.9407674621
  C         2.5062142829        8.6538590470       -4.1272911793
  H         2.7131102182        9.0638249498       -5.0476060874
  O         2.0944574660        7.4532128968       -4.0306894577
  O         2.6627127528        9.4111267832       -3.1551823779
  C         1.7411237906        5.3672390062       -8.1968397606
  H         1.4358383610        6.4416008070       -8.3632925476
  O         2.2781416216        5.0765298703       -7.0407346532
  O         1.5313006131        4.4832984609       -9.0175066749
  C         9.4768345970        2.6096220124        3.9000127819
  H         9.6131090334        3.4671477718        4.5843902861
  O         8.5279815358        2.7173170901        3.0491762908
  O        10.1884849736        1.5401163673        4.0330444209
  C         6.6326424491        7.0382685860        3.3282184955
  H         7.5082674956        7.1289998248        4.0070788575
  O         6.4944017439        6.1603843997        2.4465696161
  O         5.7954308670        7.9029625633        3.5812366260
  C         4.7447775018        5.8524668865        6.9353630901
  H         5.7085862008        5.7040540943        7.4370666698
  O         4.3285211606        4.9885239826        6.0814713829
  O         4.1456455504        6.9223904573        7.1371138027
  C         7.5603292734        1.7452827134        7.1878428079
  H         8.1158840311        2.6116602203        7.6593692779
  O         6.7458099634        2.0301778612        6.2244260662
  O         7.8434649484        0.5821194669        7.5894346769
     227
 i =        2, time =        2.000, E =       -18.6733965554
 Cd        -8.6170069567        0.4783622388        3.4767842387
 Cd        -5.8708214070       -0.2575703051        7.1136496922
 Cd        -8.4089466397       -2.1552302712        0.3836291951
 Cd        -6.8897041715       -3.2939043557        3.9621369457