     227
 i =        0, time =        0.000, E =       -25.1402620223
 Cd        -8.6216924880        0.4810107428        3.4775887729
 Cd        -5.8723589632       -0.2566559957        7.1151373767
 Cd        -8.4076147924       -2.1531404527        0.3867588804
 Cd        -6.8957642261       -3.2896665849        3.9600318291
 Cd        -3.6930098048       -3.6992689615        7.3819491709
 Cd        -6.4429261463       -6.2347087238        0.4622469067
 Cd        -4.3123952394       -6.8285875372        3.9039095072
 Cd        -6.1141073353        3.8626235599        2.9066844924
 Cd        -3.6048790416        2.8797284733        6.5917986711
 Cd        -6.7531255596        1.1841266196       -0.3182182747
 Cd        -4.0437606329        0.0729837467        3.0511954168
 Cd        -1.7753257667       -0.3121054857        6.8316599018
 Cd        -6.3661028473       -1.4630135273       -3.4383357626
 Cd        -4.3602814436       -3.1214810613       -0.1759283953
 Cd        -2.2424276819       -3.6242998489        3.6335413818
 Cd         0.1757294635       -3.9625201566        7.0364714760
 Cd        -4.2692200317       -5.9860442556       -3.0005266361
 Cd        -2.2482225396       -6.7972628816        0.6786391664
 Cd         0.0669003827       -7.3030327295        3.8545421700
 Cd        -4.0792754193        7.4105475565        2.4175118797
 Cd        -1.6116442377        6.4880648240        6.2478272306
 Cd        -4.3308002626        4.8127262164       -0.6762739309
 Cd        -1.8326132452        3.6694977750        3.1598212265
 Cd         0.4939817277        3.1637060931        6.7202662426
 Cd        -4.5980154021        1.9988297698       -4.0880170010
 Cd        -2.1651194586        1.0165564496       -0.4536921834
 Cd         0.1376109507       -0.0659106884        3.1336818174
 Cd         2.6419074521       -0.6636939286        6.8958319365
 Cd        -4.1515129292       -0.5348426091       -6.9620217917
 Cd        -2.2012490343       -1.8491984656       -3.4894107829
 Cd         0.0359311218       -2.8494155653       -0.0264680683
 Cd         2.4407298775       -3.8224684908        3.5289587884
 Cd         4.5907434619       -4.2169180472        6.5928471603
 Cd        -2.6321953796       -4.5685798778       -6.0773989300
 Cd        -0.3638438279       -6.1221236347       -3.0620735359
 Cd         1.9882729153       -6.8506852632       -0.0376753302
 Cd         4.3604701588       -7.5063202656        3.0981086138
 Cd        -2.4313710890        8.2839908015       -1.2010761441
 Cd         0.1210964618        6.7915494583        2.0748938605
 Cd         2.2602783261        6.3879934074        5.9824457591
 Cd        -2.2743307721        5.5403016700       -4.1096429978
 Cd         0.1552258413        4.6164378819       -0.9814446932
 Cd         2.6173372932        3.7540356816        2.4616712460
 Cd         4.3934694910        2.5024270436        5.6448470259
 Cd        -2.3839877703        3.0961459608       -7.5397423510
 Cd        -0.1308699873        1.7716472388       -4.3458913396
 Cd         2.1522040622        0.8595996928       -0.9600505658
 Cd         4.3027041934       -0.4425155449        2.5248589789
 Cd         6.4943132815       -0.6514444341        6.0110723312
 Cd         0.4032906214       -0.5920449882       -7.0625722312
 Cd         2.1504065746       -1.8410095193       -3.9631978812
 Cd         4.1282053355       -2.9764966895       -0.5499119195
 Cd         6.9189885741       -3.8001688729        2.8840486736
 Cd         1.0693858855       -4.7693596381       -6.7909688629
 Cd         3.6529341800       -5.7620820022       -3.6150795142
 Cd         5.7341856059       -6.5625995016       -0.3323817960
 Cd         2.4532379782        8.1225833618       -1.1556872380
 Cd         4.4025673150        7.2904811152        1.7928276254
 Cd         2.3800547108        5.2453457502       -4.8107637235
 Cd         4.8184663347        4.7191125514       -1.4277792117
 Cd         6.7589411702        3.8390778732        2.0295448973
 Cd         2.6210634084        2.7844913241       -7.7035228004
 Cd         4.8495943395        1.7843685348       -4.5225056138
 Cd         6.7261500983        1.0662237140       -0.9642295531
 Cd         8.8881450478        0.4141445330        2.4369093904
 Cd         4.3615782352       -0.9213178924       -7.7328888960
 Cd         6.7438649008       -1.9767569930       -4.2031112584
 Cd         8.5272445020       -2.6218905711       -0.2551455218
 Se        -9.0557725106        0.2424574140        0.9180313808
 Se        -6.3745872764       -0.6570220647        4.4225742627
 Se        -3.9358548519       -1.3506397678        8.2925868769
 Se        -6.5830028390       -3.7408669090        1.3890860046
 Se        -4.5802302415       -4.2716541219        4.8585926421
 Se        -4.6110671623       -7.7792240778        1.5343213278
 Se        -6.6407812351        3.9866809498        0.4586064126
 Se        -4.0705866514        2.6241591830        3.9150270775
 Se        -1.6315747320        2.0143859544        7.9219454430
 Se        -6.7106235468        0.9827493806       -3.1628202938
 Se        -4.4077684895       -0.2106461950        0.3970531668
 Se        -2.0534879979       -1.1190641497        4.2604482105
 Se         0.4069246601       -1.5676855049        8.0617057342
 Se        -4.4126107232       -3.1307459794       -2.8028288282
 Se        -2.2371864822       -4.0884616040        0.9473336128
 Se         0.1541797359       -4.8148952714        4.4843326207
 Se        -2.4147106009       -7.4199706225       -2.0529393442
 Se        -0.0662571417       -7.8800811154        1.3078284855
 Se        -4.5519687636        7.5920037884       -0.0122560791
 Se        -1.8482840651        6.3647212661        3.5390459072
 Se         0.4006735392        5.8241498358        7.5878867146
 Se        -4.4655945585        4.5529209660       -3.3484418515
 Se        -2.0798083538        3.7153034916        0.3451575142
 Se         0.4973892782        2.6967113851        3.7286137790
 Se         2.7724753484        1.9958260876        7.6298945277
 Se        -4.6126224962        2.0736182894       -6.9031574659
 Se        -2.2770211290        0.8531533747       -3.1284312065
 Se         0.0138865169       -0.1636477002        0.3858468104
 Se         2.3115473387       -1.3198431962        4.0017354986
 Se         4.8624545925       -1.8855864388        7.7371297607
 Se        -2.0700877949       -1.9675257511       -6.4603372509
 Se        -0.0447057629       -3.1582708631       -2.8090856920
 Se         2.2343306950       -4.2299664240        0.7817840723
 Se         4.8342987615       -4.9516929708        4.0974643468
 Se        -0.7556003326       -6.2829108386       -5.8406699955
 Se         1.9243057511       -7.4784768035       -2.6074198353
 Se         4.2543989663       -8.3809591814        0.7363809319
 Se         0.0386925703        7.3677075300       -0.4939635450
 Se         2.3791568525        6.5289221229        3.1400383851
 Se         0.0465974103        4.4270318221       -3.5936563407
 Se         2.5167269427        3.6273521599       -0.0581806204
 Se         4.7705604635        2.4670139639        3.1233546104
 Se         0.0435933033        1.9323944164       -6.9695738842
 Se         2.2733127965        0.7623703678       -3.6584263160
 Se         4.3816175435       -0.2841549253       -0.0177063702
 Se         6.9670500347       -1.1290204494        3.5565582379
 Se         2.2410869402       -2.2702007814       -6.6798205275
 Se         4.3723294721       -3.1971869108       -3.2130677403
 Se         6.4331938555       -4.1098532443        0.4136420186
 Se         4.8503033307        7.5509093293       -0.7463548497
 Se         4.8776288797        4.5477652435       -4.0091414448
 Se         7.0830986217        3.5950723552       -0.6434567968
 Se         4.7810064642        1.5273410534       -7.5566303287
 Se         6.9188050062        0.6130038217       -3.7081238627
 Se         9.1066871843       -0.0609359671       -0.0919647969
  C         6.9955771113       -6.9586634775       -2.8583426301
  H         7.7780160969       -7.1271873265       -3.6573399650
  O         5.8389952916       -6.4652991204       -3.1445809228
  O         7.2920676004       -7.2683568805       -1.6893132711
  C         3.3939431960       -6.2668607509       -6.9513074648
  H         4.3245440932       -6.8689211647       -7.0591687882
  O         3.0202466073       -5.7860511295       -5.7843136273
  O         2.6220129789       -6.1746538788       -7.9242101403
  C         6.3116555909       -2.9071154185       -7.4921130606
  H         7.0978863851       -3.7212906458       -7.4285512081
  O         6.0096715894       -2.3219711192       -6.3505932827
  O         5.9403243477       -2.4750431756       -8.6116316973
  C         8.9837561036       -3.3697375837       -3.4349055328
  H         9.9249943929       -3.8864043165       -3.1840078659
  O         8.5659407989       -3.4209184445       -4.6048832464
  O         8.2714489672       -2.6971151254       -2.5207012617
  C         9.7902109758       -4.6282247391        2.1768529346
  H        10.6284324694       -5.3337138149        2.3552924638
  O         9.7484501532       -4.1824896055        0.9942458601
  O         9.0219926648       -4.5705851174        3.1873629795
  C        -2.8252708508       -8.8894178348        5.3653894160
  H        -2.3915771747       -9.8892286280        5.4446685031
  O        -1.9808601030       -7.9304545651        5.0436955975
  O        -4.0908415257       -8.7280019527        5.4030844137
  C         3.0047406823       -8.6887063298        5.2919739424
  H         2.6853413808       -9.0312323512        6.2714246943
  O         1.9985977812       -8.3553887881        4.5599054594
  O         4.2197147413       -8.6069092298        4.9235206312
  C         2.8732291572       -5.7090624943        8.2322507888
  H         2.4095730423       -6.3582442170        8.9295273658
  O         2.2236878889       -4.8031284854        7.6183804854
  O         4.1525405945       -5.8988692439        8.1468427445
  C        -2.5324052264       -5.9090323801        8.5168983878
  H        -2.0058427467       -6.7599986745        9.0204193621
  O        -1.9189018681       -5.2527647032        7.5983339134
  O        -3.6521974131       -5.4981014961        8.8936623702
  C        -6.8661340661        2.3082426882        7.3884767521
  H        -7.2433530482        3.2983326111        7.3747512577
  O        -5.6189307919        2.1553364867        7.5292857639
  O        -7.6694328727        1.3672322100        7.2032576312
  C        -4.1128935570        6.2776012356        7.2258109093
  H        -5.2184092536        6.2949225170        7.4003980339
  O        -3.5215502414        5.2331222329        6.7794929280
  O        -3.5956064510        7.4679880815        7.3184340370
  C        -6.2584500423        7.1467273309        4.0778865765
  H        -7.2018864753        7.1620259062        4.6862261037
  O        -5.8042352338        6.0508881806        3.6277903665
  O        -5.6141473350        8.2227071687        3.8530055117
  C        -9.2670155991        2.9624473135        4.4549609073
  H        -9.7760873251        3.8307467380        4.7753730710
  O        -8.0580447847        3.0137717908        4.1153681461
  O       -10.0869615960        1.9755230626        4.3964141791
  C        -9.5997958208       -3.5202239981        4.2555074891
  H       -10.6284324694       -3.6062117458        4.7363993397
  O        -9.3836198173       -2.7271085544        3.2939504316
  O        -8.6749593009       -4.3055307223        4.7674147240
  C        -5.4063829718       -6.0836320759       -6.1576393485
  H        -6.0390997038       -6.5934387315       -6.8768176703
  O        -5.3157147411       -6.5042627408       -4.9638375967
  O        -4.7997118332       -5.0931497246       -6.6842330004
  C        -7.4812021438       -7.2683192216       -1.8337008205
  H        -7.8430239833       -7.7214409635       -2.7403108931
  O        -6.3847231004       -6.5596142310       -1.8855223803
  O        -8.0870004405       -7.4369608581       -0.7449951352
  C        -9.2637717352       -3.4248031045       -2.1287629167
  H        -9.5435102925       -4.0726156799       -2.9624854104
  O        -8.1685743898       -2.7562864935       -2.2769679175
  O        -9.8293124780       -3.4993302663       -1.0042472880
  C        -6.7198117275       -1.5155721631       -7.0057360974
  H        -7.7266400310       -1.9701098143       -7.1795729881
  O        -6.3208037730       -1.2812141421       -5.7891801227
  O        -6.0546670581       -1.2647410752       -8.0219575549
  C        -1.9610306020        5.6962737072       -7.4797868569
  H        -1.8068881661        6.7616764611       -7.4798700689
  O        -2.4613788677        5.1953402046       -6.4147373301
  O        -1.7592038190        5.0404242691       -8.5376948407
  C        -1.7153677193        9.0065729983       -3.7807068554
  H        -1.3518565997        9.2891789052       -4.8285272378
  O        -1.7735635219        7.7204009534       -3.5311974415
  O        -1.9589811591        9.8892286280       -2.9296575010
  C         2.5176986766        8.6527359013       -4.1276241396
  H         2.7356319561        9.0838176512       -5.0545617483
  O         2.0941304229        7.4607563111       -4.0382054964
  O         2.6632020791        9.4136986823       -3.1567247192
  C         1.7405814703        5.3615037054       -8.2026998584
  H         1.4592813282        6.4433815072       -8.3446733349
  O         2.2712544771        5.0744229803       -7.0359036782
  O         1.5374971892        4.4786315137       -9.0204193621
  C         9.4791869119        2.6134878200        3.9079418032
  H         9.6264681644        3.4611325178        4.5867541287
  O         8.5294682966        2.7206869475        3.0468687327
  O        10.1884170796        1.5361363159        4.0354546634
  C         6.6320899766        7.0427804887        3.3240585285
  H         7.5183451153        7.1103565644        4.0025867163
  O         6.4921259472        6.1579139584        2.4473334656
  O         5.8014508194        7.8970951585        3.5804466065
  C         4.7468288793        5.8510846562        6.9391041765
  H         5.6837062732        5.7110173508        7.4566454645
  O         4.3315486404        4.9881730889        6.0840680113
  O         4.1390624477        6.9214380767        7.1338855679
  C         7.5642974957        1.7429307679        7.1823006621
  H         8.1116275708        2.6102062210        7.6466333920
  O         6.7423080014        2.0330978891        6.2208765696
  O         7.8434776238        0.5800715711        7.5931108165
     227
 i =        1, time =        1.000, E =       -25.1509168387
 Cd        -8.6193520729        0.4796711322        3.4771579964
 Cd        -5.8715175178       -0.2571727528        7.1144154724
 Cd        -8.4082459596       -2.1541314674        0.3852345010
 Cd        -6.8927486170       -3.2918182472        3.9610901600
 Cd        -3.6901777101       -3.7003954726        7.3824229064
 Cd        -6.4419855155       -6.2357843732        0.4642502016
 Cd        -4.3123533769       -6.8296591445        3.9052126101
 Cd        -6.1163976706        3.8609421079        2.9055518982
 Cd        -3.6066281995        2.8812354372        6.5904506125
 Cd        -6.7534521102        1.1872482177       -0.3192317541
 Cd        -4.0444413004        0.0755210149        3.0502028953
 Cd        -1.7741784384       -0.3125618909        6.8336367838
 Cd        -6.3661184668       -1.4623989874       -3.4401878084
 Cd        -4.3613476061       -3.1217921634       -0.1745518330
 Cd        -2.2426219974       -3.6215540538        3.6336258083
 Cd         0.1787320995       -3.9615919085        7.0369596908
 Cd        -4.2693887944       -5.9882802969       -2.9988731117
 Cd        -2.2486834239       -6.7966677181        0.6791567192
 Cd         0.0677990269       -7.3030002941        3.8542313953
 Cd        -4.0803514121        7.4119343638        2.4182540135
 Cd        -1.6107974873        6.4879102253        6.2510098296
 Cd        -4.3325716169        4.8128114999       -0.6769722868
 Cd        -1.8304151268        3.6695975931        3.1589511308
 Cd         0.4898072946        3.1633220389        6.7205901473
 Cd        -4.5996908945        2.0001329562       -4.0890027252
 Cd        -2.1629117643        1.0181226860       -0.4517695740
 Cd         0.1384399252       -0.0681821198        3.1344385034
 Cd         2.6424376165       -0.6635636169        6.8959660584
 Cd        -4.1541246297       -0.5351573956       -6.9611378605
 Cd        -2.2031911999       -1.8491128774       -3.4900243949
 Cd         0.0358084453       -2.8475179285       -0.0251015922
 Cd         2.4397064585       -3.8215464285        3.5304768222
 Cd         4.5938255124       -4.2152112213        6.5947107688
 Cd        -2.6317018589       -4.5700082872       -6.0785669627
 Cd        -0.3609701397       -6.1211257217       -3.0631456406
 Cd         1.9863927387       -6.8523909951       -0.0374724373
 Cd         4.3578530039       -7.5051021573        3.0974276092
 Cd        -2.4320699118        8.2867263994       -1.2003872675
 Cd         0.1211454413        6.7911498473        2.0748194781
 Cd         2.2581358628        6.3879284932        5.9827110045
 Cd        -2.2740560752        5.5405490377       -4.1121418792
 Cd         0.1544557006        4.6148813642       -0.9823754968
 Cd         2.6165413296        3.7533346693        2.4610046518
 Cd         4.3939484365        2.5015534387        5.6447035075
 Cd        -2.3865037292        3.0937684735       -7.5398832410
 Cd        -0.1312657686        1.7709515905       -4.3474353512
 Cd         2.1532106004        0.8600232828       -0.9632179696
 Cd         4.3034839439       -0.4402473142        2.5247863888
 Cd         6.4920562565       -0.6517668462        6.0104973026
 Cd         0.4042775280       -0.5927814335       -7.0621286001
 Cd         2.1513484901       -1.8411041685       -3.9633506566
 Cd         4.1300086326       -2.9780348897       -0.5482428505
 Cd         6.9198375117       -3.7969892188        2.8855039450
 Cd         1.0695983235       -4.7692596443       -6.7906561225
 Cd         3.6506553010       -5.7625434678       -3.6177488864
 Cd         5.7330094088       -6.5640594153       -0.3328119191
 Cd         2.4551490874        8.1222989326       -1.1566659504
 Cd         4.4053863249        7.2897865490        1.7948516718
 Cd         2.3804134446        5.2452483555       -4.8087460124
 Cd         4.8190277377        4.7184623949       -1.4284487535
 Cd         6.7582575341        3.8401511644        2.0311517950
 Cd         2.6218201583        2.7829381271       -7.7033844416
 Cd         4.8494077937        1.7846686165       -4.5231181526
 Cd         6.7277670834        1.0650448171       -0.9631355105
 Cd         8.8867500390        0.4156016166        2.4347878749
 Cd         4.3618559535       -0.9226095031       -7.7309040892
 Cd         6.7428079184       -1.9756311892       -4.2012796405
 Cd         8.5291355017       -2.6208130793       -0.2528247505
 Se        -9.0546652771        0.2428001275        0.9183500629
 Se        -6.3727299011       -0.6565232574        4.4182883854
 Se        -3.9345661556       -1.3489890137        8.2963926743
 Se        -6.5830951836       -3.7425260494        1.3880763872
 Se        -4.5790365384       -4.2748287277        4.8596982087
 Se        -4.6122153264       -7.7764413102        1.5328780760
 Se        -6.6421528246        3.9855223323        0.4577609442
 Se        -4.0718941880        2.6208430101        3.9142488589
 Se        -1.6333494685        2.0117141851        7.9249451380
 Se        -6.7115411458        0.9828217537       -3.1654480633
 Se        -4.4070230206       -0.2111743607        0.3949243276
 Se        -2.0531283887       -1.1153536858        4.2593409520
 Se         0.4060019584       -1.5661940421        8.0649532605
 Se        -4.4160133391       -3.1299343892       -2.8046235390
 Se        -2.2374569148       -4.0915605519        0.9472000249
 Se         0.1530716551       -4.8127401537        4.4857649272
 Se        -2.4165773971       -7.4204594940       -2.0539704620
 Se        -0.0669874617       -7.8789931714        1.3095637271
 Se        -4.5519693025        7.5948101609       -0.0125369270
 Se        -1.8466645256        6.3632830417        3.5400031340
 Se         0.4036865838        5.8261754134        7.5856964292
 Se        -4.4659080683        4.5539260212       -3.3489298957
 Se        -2.0809513401        3.7152443330        0.3431581109
 Se         0.4981819016        2.6970277435        3.7286339362
 Se         2.7717731711        1.9958402055        7.6260550122
 Se        -4.6130350893        2.0747080737       -6.9048864811
 Se        -2.2788412146        0.8534884571       -3.1260956442
 Se         0.0145422650       -0.1632262662        0.3853903035
 Se         2.3129809011       -1.3189400308        3.9989430475
 Se         4.8631252414       -1.8843208571        7.7352592213
 Se        -2.0702371240       -1.9663971315       -6.4603445193
 Se        -0.0447562558       -3.1598690738       -2.8087791204
 Se         2.2323232211       -4.2314033713        0.7809180222
 Se         4.8362164255       -4.9530324182        4.0967189422
 Se        -0.7551549561       -6.2846549046       -5.8413870957
 Se         1.9249958099       -7.4788941165       -2.6075679124
 Se         4.2593832307       -8.3790347911        0.7364664471
 Se         0.0356802069        7.3685651365       -0.4912400372
 Se         2.3808551153        6.5252165502        3.1423863087
 Se         0.0437016858        4.4287778018       -3.5939572516
 Se         2.5163372524        3.6274516893       -0.0567759286
 Se         4.7726322932        2.4662040983        3.1253460545
 Se         0.0455218124        1.9298313870       -6.9704226557
 Se         2.2757561536        0.7647891805       -3.6570230910
 Se         4.3765883548       -0.2853813068       -0.0177404676
 Se         6.9676649210       -1.1294535250        3.5582780546
 Se         2.2368812711       -2.2680743227       -6.6837430940
 Se         4.3736366466       -3.1974649934       -3.2155937045
 Se         6.4331001102       -4.1116639352        0.4130522005
 Se         4.8513797734        7.5523937392       -0.7458250527
 Se         4.8773862623        4.5489337067       -4.0121510243
 Se         7.0854703121        3.5933945907       -0.6428445520
 Se         4.7815373118        1.5263599902       -7.5555365254
 Se         6.9184125953        0.6112206654       -3.7073379609
 Se         9.1067833767       -0.0627468744       -0.0922366318
  C         6.9966626164       -6.9497540517       -2.8612735359
  H         7.7649322095       -7.1224747738       -3.6684216540
  O         5.8437874044       -6.4671634280       -3.1400145347
  O         7.2882046914       -7.2739466469       -1.6933502607
  C         3.3951040754       -6.2672591359       -6.9491344724
  H         4.3444066225       -6.8936096686       -7.0753272229
  O         3.0187579784       -5.7907342760       -5.7817626172
  O         2.6175535965       -6.1687150041       -7.9238525360
  C         6.3106262814       -2.9078795025       -7.4909589992
  H         7.1299137504       -3.7048862282       -7.4466889051
  O         6.0085168911       -2.3180676917       -6.3472893937
  O         5.9391609425       -2.4740738396       -8.6123406732
  C         8.9773792918       -3.3708981104       -3.4296149907
  H         9.9250180562       -3.8774829974       -3.1826003730
  O         8.5680476993       -3.4147185479       -4.6045295784
  O         8.2715709804       -2.6966763196       -2.5199220549
  C         9.7980093587       -4.6251752827        2.1809721932
  H        10.6408655401       -5.3318691344        2.3887999993
  O         9.7469336925       -4.1803022815        0.9925206052
  O         9.0282413914       -4.5679751428        3.1869898263
  C        -2.8217050968       -8.8883699257        5.3598601804
  H        -2.4154187803       -9.9024293192        5.4343946394
  O        -1.9846945227       -7.9305249483        5.0422059490
  O        -4.0904438877       -8.7272093540        5.4042791609
  C         2.9969038450       -8.6915505881        5.2874377743
  H         2.6967725338       -9.0398269484        6.2934215078
  O         1.9992143960       -8.3576760894        4.5593245735
  O         4.2233731753       -8.6002876342        4.9150538055
  C         2.8792680405       -5.7053316956        8.2323721983
  H         2.3955873073       -6.3773024893        8.9303283437
  O         2.2188473266       -4.8087186048        7.6161466441
  O         4.1498469630       -5.9032759828        8.1533497634
  C        -2.5346964670       -5.9173560587        8.5219238905
  H        -2.0052498086       -6.7390725628        9.0096019785
  O        -1.9214634665       -5.2580817684        7.5982735089
  O        -3.6522331279       -5.5081972691        8.8925407167
  C        -6.8630538365        2.3027171040        7.3891123681
  H        -7.2086193538        3.3071349018        7.3885257928
  O        -5.6211328689        2.1590098053        7.5335273630
  O        -7.6693378634        1.3701188858        7.1999299727
  C        -4.1170188625        6.2827618329        7.2281261775
  H        -5.2418933127        6.2896177269        7.3832000201
  O        -3.5264794878        5.2289496053        6.7737117526
  O        -3.5908919326        7.4672144097        7.3178993648
  C        -6.2567108888        7.1461853926        4.0781168394
  H        -7.2111390447        7.1649409639        4.6689854642
  O        -5.8089199803        6.0477371863        3.6277652835
  O        -5.6124667489        8.2205297546        3.8485097995
  C        -9.2741477077        2.9617160333        4.4604993713
  H        -9.7855372140        3.8838940690        4.7760086716
  O        -8.0586795869        3.0118569436        4.1191911891
  O       -10.0808535020        1.9790481231        4.3920942768
  C        -9.6032301338       -3.5281921810        4.2551375413
  H       -10.5971720209       -3.6001750875        4.7566807035
  O        -9.3830826456       -2.7227488329        3.2942866016
  O        -8.6782724143       -4.3014775587        4.7628372004
  C        -5.4081392533       -6.0791859215       -6.1561432809
  H        -6.0546960796       -6.5859836395       -6.8890942905
  O        -5.3108364347       -6.5039249990       -4.9649635787
  O        -4.7981396062       -5.0926528451       -6.6851754784
  C        -7.4874627312       -7.2704962060       -1.8348071883
  H        -7.8388434959       -7.7173330376       -2.7530342297
  O        -6.3886169579       -6.5548494329       -1.8841348215
  O        -8.0714806718       -7.4407345012       -0.7456857214
  C        -9.2562078275       -3.4270246852       -2.1219532849
  H        -9.5270787848       -4.0663584857       -2.9594189931
  O        -8.1697013877       -2.7553208653       -2.2726397401
  O        -9.8240352867       -3.4938493362       -1.0090935884
  C        -6.7206816666       -1.5101901730       -7.0045500893
  H        -7.7450574417       -1.9674181007       -7.1698505571
  O        -6.3196286820       -1.2781655354       -5.7988683805
  O        -6.0630351256       -1.2634240319       -8.0153469440
  C        -1.9628568545        5.6954785054       -7.4852694320
  H        -1.7770888886        6.7764005651       -7.4923242406
  O        -2.4610817177        5.1865604021       -6.4086064222
  O        -1.7564816704        5.0401172386       -8.5281478109
  C        -1.7168433395        9.0074538065       -3.7839193808
  H        -1.3493405476        9.2660238074       -4.8465614694
  O        -1.7701747058        7.7192806476       -3.5245301839
  O        -1.9637889604        9.8893685495       -2.9406435740
  C         2.5061967964        8.6538397100       -4.1272915662
  H         2.7131102182        9.0638249498       -5.0476060874
  O         2.0944688789        7.4530541863       -4.0307197277
  O         2.6626786152        9.4110353224       -3.1550424830
  C         1.7411001548        5.3672363998       -8.1968212290
  H         1.4358383610        6.4416008070       -8.3632925476
  O         2.2781618721        5.0764091961       -7.0404308278
  O         1.5313813854        4.4831788061       -9.0173970161
  C         9.4768006367        2.6096180661        3.9000220912
  H         9.6131090334        3.4671477718        4.5843902861
  O         8.5278413304        2.7172808753        3.0490650889
  O        10.1883582411        1.5400178668        4.0329016426
  C         6.6326298619        7.0382428384        3.3282294346
  H         7.5082674956        7.1289998248        4.0070788575
  O         6.4943033599        6.1602618437        2.4465292685
  O         5.7952975427        7.9028910486        3.5810824107
  C         4.7447847749        5.8524554612        6.9353379307
  H         5.7085862008        5.7040540943        7.4370666698
  O         4.3284318781        4.9884893959        6.0814267618
  O         4.1454009853        6.9223142064        7.1369392971
  C         7.5603232447        1.7452839613        7.1878140950
  H         8.1158840311        2.6116602203        7.6593692779
  O         6.7457009094        2.0301423005        6.2243855041
  O         7.8433800196        0.5820472482        7.5893116367
     227
 i =        2, time =        2.000, E =       -25.1700056804
 Cd        -8.6170353679        0.4784329308        3.4767194641
 Cd        -5.8706917380       -0.2575659987        7.1137258976
 Cd        -8.4089873167       -2.1551626350        0.3836722877
 Cd        -6.8897638431       -3.2939743565        3.9621168659