     227
 i =        0, time =        0.000, E =       -15.9462849839
 Cd        -8.6216924880        0.4810107428        3.4775887729
 Cd        -5.8723589632       -0.2566559957        7.1151373767
 Cd        -8.4076147924       -2.1531404527        0.3867588804
 Cd        -6.8957642261       -3.2896665849        3.9600318291
 Cd        -3.6930098048       -3.6992689615        7.3819491709
 Cd        -6.4429261463       -6.2347087238        0.4622469067
 Cd        -4.3123952394       -6.8285875372        3.9039095072
 Cd        -6.1141073353        3.8626235599        2.9066844924
 Cd        -3.6048790416        2.8797284733        6.5917986711
 Cd        -6.7531255596        1.1841266196       -0.3182182747
 Cd        -4.0437606329        0.0729837467        3.0511954168
 Cd        -1.7753257667       -0.3121054857        6.8316599018
 Cd        -6.3661028473       -1.4630135273       -3.4383357626
 Cd        -4.3602814436       -3.1214810613       -0.1759283953
 Cd        -2.2424276819       -3.6242998489        3.6335413818
 Cd         0.1757294635       -3.9625201566        7.0364714760
 Cd        -4.2692200317       -5.9860442556       -3.0005266361
 Cd        -2.2482225396       -6.7972628816        0.6786391664
 Cd         0.0669003827       -7.3030327295        3.8545421700
 Cd        -4.0792754193        7.4105475565        2.4175118797
 Cd        -1.6116442377        6.4880648240        6.2478272306
 Cd        -4.3308002626        4.8127262164       -0.6762739309
 Cd        -1.8326132452        3.6694977750        3.1598212265
 Cd         0.4939817277        3.1637060931        6.7202662426
 Cd        -4.5980154021        1.9988297698       -4.0880170010
 Cd        -2.1651194586        1.0165564496       -0.4536921834
 Cd         0.1376109507       -0.0659106884        3.1336818174
 Cd         2.6419074521       -0.6636939286        6.8958319365
 Cd        -4.1515129292       -0.5348426091       -6.9620217917
 Cd        -2.2012490343       -1.8491984656       -3.4894107829
 Cd         0.0359311218       -2.8494155653       -0.0264680683
 Cd         2.4407298775       -3.8224684908        3.5289587884
 Cd         4.5907434619       -4.2169180472        6.5928471603
 Cd        -2.6321953796       -4.5685798778       -6.0773989300
 Cd        -0.3638438279       -6.1221236347       -3.0620735359
 Cd         1.9882729153       -6.8506852632       -0.0376753302
 Cd         4.3604701588       -7.5063202656        3.0981086138
 Cd        -2.4313710890        8.2839908015       -1.2010761441
 Cd         0.1210964618        6.7915494583        2.0748938605
 Cd         2.2602783261        6.3879934074        5.9824457591
 Cd        -2.2743307721        5.5403016700       -4.1096429978
 Cd         0.1552258413        4.6164378819       -0.9814446932
 Cd         2.6173372932        3.7540356816        2.4616712460
 Cd         4.3934694910        2.5024270436        5.6448470259
 Cd        -2.3839877703        3.0961459608       -7.5397423510
 Cd        -0.1308699873        1.7716472388       -4.3458913396
 Cd         2.1522040622        0.8595996928       -0.9600505658
 Cd         4.3027041934       -0.4425155449        2.5248589789
 Cd         6.4943132815       -0.6514444341        6.0110723312
 Cd         0.4032906214       -0.5920449882       -7.0625722312
 Cd         2.1504065746       -1.8410095193       -3.9631978812
 Cd         4.1282053355       -2.9764966895       -0.5499119195
 Cd         6.9189885741       -3.8001688729        2.8840486736
 Cd         1.0693858855       -4.7693596381       -6.7909688629
 Cd         3.6529341800       -5.7620820022       -3.6150795142
 Cd         5.7341856059       -6.5625995016       -0.3323817960
 Cd         2.4532379782        8.1225833618       -1.1556872380
 Cd         4.4025673150        7.2904811152        1.7928276254
 Cd         2.3800547108        5.2453457502       -4.8107637235
 Cd         4.8184663347        4.7191125514       -1.4277792117
 Cd         6.7589411702        3.8390778732        2.0295448973
 Cd         2.6210634084        2.7844913241       -7.7035228004
 Cd         4.8495943395        1.7843685348       -4.5225056138
 Cd         6.7261500983        1.0662237140       -0.9642295531
 Cd         8.8881450478        0.4141445330        2.4369093904
 Cd         4.3615782352       -0.9213178924       -7.7328888960
 Cd         6.7438649008       -1.9767569930       -4.2031112584
 Cd         8.5272445020       -2.6218905711       -0.2551455218
 Se        -9.0557725106        0.2424574140        0.9180313808
 Se        -6.3745872764       -0.6570220647        4.4225742627
 Se        -3.9358548519       -1.3506397678        8.2925868769
 Se        -6.5830028390       -3.7408669090        1.3890860046
 Se        -4.5802302415       -4.2716541219        4.8585926421
 Se        -4.6110671623       -7.7792240778        1.5343213278
 Se        -6.6407812351        3.9866809498        0.4586064126
 Se        -4.0705866514        2.6241591830        3.9150270775
 Se        -1.6315747320        2.0143859544        7.9219454430
 Se        -6.7106235468        0.9827493806       -3.1628202938
 Se        -4.4077684895       -0.2106461950        0.3970531668
 Se        -2.0534879979       -1.1190641497        4.2604482105
 Se         0.4069246601       -1.5676855049        8.0617057342
 Se        -4.4126107232       -3.1307459794       -2.8028288282
 Se        -2.2371864822       -4.0884616040        0.9473336128
 Se         0.1541797359       -4.8148952714        4.4843326207
 Se        -2.4147106009       -7.4199706225       -2.0529393442
 Se        -0.0662571417       -7.8800811154        1.3078284855
 Se        -4.5519687636        7.5920037884       -0.0122560791
 Se        -1.8482840651        6.3647212661        3.5390459072
 Se         0.4006735392        5.8241498358        7.5878867146
 Se        -4.4655945585        4.5529209660       -3.3484418515
 Se        -2.0798083538        3.7153034916        0.3451575142
 Se         0.4973892782        2.6967113851        3.7286137790
 Se         2.7724753484        1.9958260876        7.6298945277
 Se        -4.6126224962        2.0736182894       -6.9031574659
 Se        -2.2770211290        0.8531533747       -3.1284312065
 Se         0.0138865169       -0.1636477002        0.3858468104
 Se         2.3115473387       -1.3198431962        4.0017354986
 Se         4.8624545925       -1.8855864388        7.7371297607
 Se        -2.0700877949       -1.9675257511       -6.4603372509
 Se        -0.0447057629       -3.1582708631       -2.8090856920
 Se         2.2343306950       -4.2299664240        0.7817840723
 Se         4.8342987615       -4.9516929708        4.0974643468
 Se        -0.7556003326       -6.2829108386       -5.8406699955
 Se         1.9243057511       -7.4784768035       -2.6074198353
 Se         4.2543989663       -8.3809591814        0.7363809319
 Se         0.0386925703        7.3677075300       -0.4939635450
 Se         2.3791568525        6.5289221229        3.1400383851
 Se         0.0465974103        4.4270318221       -3.5936563407
 Se         2.5167269427        3.6273521599       -0.0581806204
 Se         4.7705604635        2.4670139639        3.1233546104
 Se         0.0435933033        1.9323944164       -6.9695738842
 Se         2.2733127965        0.7623703678       -3.6584263160
 Se         4.3816175435       -0.2841549253       -0.0177063702
 Se         6.9670500347       -1.1290204494        3.5565582379
 Se         2.2410869402       -2.2702007814       -6.6798205275
 Se         4.3723294721       -3.1971869108       -3.2130677403
 Se         6.4331938555       -4.1098532443        0.4136420186
 Se         4.8503033307        7.5509093293       -0.7463548497
 Se         4.8776288797        4.5477652435       -4.0091414448
 Se         7.0830986217        3.5950723552       -0.6434567968
 Se         4.7810064642        1.5273410534       -7.5566303287
 Se         6.9188050062        0.6130038217       -3.7081238627
 Se         9.1066871843       -0.0609359671       -0.0919647969
  C         6.9955771113       -6.9586634775       -2.8583426301
  H         7.7780160969       -7.1271873265       -3.6573399650
  O         5.8389952916       -6.4652991204       -3.1445809228
  O         7.2920676004       -7.2683568805       -1.6893132711
  C         3.3939431960       -6.2668607509       -6.9513074648
  H         4.3245440932       -6.8689211647       -7.0591687882
  O         3.0202466073       -5.7860511295       -5.7843136273
  O         2.6220129789       -6.1746538788       -7.9242101403
  C         6.3116555909       -2.9071154185       -7.4921130606
  H         7.0978863851       -3.7212906458       -7.4285512081
  O         6.0096715894       -2.3219711192       -6.3505932827
  O         5.9403243477       -2.4750431756       -8.6116316973
  C         8.9837561036       -3.3697375837       -3.4349055328
  H         9.9249943929       -3.8864043165       -3.1840078659
  O         8.5659407989       -3.4209184445       -4.6048832464
  O         8.2714489672       -2.6971151254       -2.5207012617
  C         9.7902109758       -4.6282247391        2.1768529346
  H        10.6284324694       -5.3337138149        2.3552924638
  O         9.7484501532       -4.1824896055        0.9942458601
  O         9.0219926648       -4.5705851174        3.1873629795
  C        -2.8252708508       -8.8894178348        5.3653894160
  H        -2.3915771747       -9.8892286280        5.4446685031
  O        -1.9808601030       -7.9304545651        5.0436955975
  O        -4.0908415257       -8.7280019527        5.4030844137
  C         3.0047406823       -8.6887063298        5.2919739424
  H         2.6853413808       -9.0312323512        6.2714246943
  O         1.9985977812       -8.3553887881        4.5599054594
  O         4.2197147413       -8.6069092298        4.9235206312
  C         2.8732291572       -5.7090624943        8.2322507888
  H         2.4095730423       -6.3582442170        8.9295273658
  O         2.2236878889       -4.8031284854        7.6183804854
  O         4.1525405945       -5.8988692439        8.1468427445
  C        -2.5324052264       -5.9090323801        8.5168983878
  H        -2.0058427467       -6.7599986745        9.0204193621
  O        -1.9189018681       -5.2527647032        7.5983339134
  O        -3.6521974131       -5.4981014961        8.8936623702
  C        -6.8661340661        2.3082426882        7.3884767521
  H        -7.2433530482        3.2983326111        7.3747512577
  O        -5.6189307919        2.1553364867        7.5292857639
  O        -7.6694328727        1.3672322100        7.2032576312
  C        -4.1128935570        6.2776012356        7.2258109093
  H        -5.2184092536        6.2949225170        7.4003980339
  O        -3.5215502414        5.2331222329        6.7794929280
  O        -3.5956064510        7.4679880815        7.3184340370
  C        -6.2584500423        7.1467273309        4.0778865765
  H        -7.2018864753        7.1620259062        4.6862261037
  O        -5.8042352338        6.0508881806        3.6277903665
  O        -5.6141473350        8.2227071687        3.8530055117
  C        -9.2670155991        2.9624473135        4.4549609073
  H        -9.7760873251        3.8307467380        4.7753730710
  O        -8.0580447847        3.0137717908        4.1153681461
  O       -10.0869615960        1.9755230626        4.3964141791
  C        -9.5997958208       -3.5202239981        4.2555074891
  H       -10.6284324694       -3.6062117458        4.7363993397
  O        -9.3836198173       -2.7271085544        3.2939504316
  O        -8.6749593009       -4.3055307223        4.7674147240
  C        -5.4063829718       -6.0836320759       -6.1576393485
  H        -6.0390997038       -6.5934387315       -6.8768176703
  O        -5.3157147411       -6.5042627408       -4.9638375967
  O        -4.7997118332       -5.0931497246       -6.6842330004
  C        -7.4812021438       -7.2683192216       -1.8337008205
  H        -7.8430239833       -7.7214409635       -2.7403108931
  O        -6.3847231004       -6.5596142310       -1.8855223803
  O        -8.0870004405       -7.4369608581       -0.7449951352
  C        -9.2637717352       -3.4248031045       -2.1287629167
  H        -9.5435102925       -4.0726156799       -2.9624854104
  O        -8.1685743898       -2.7562864935       -2.2769679175
  O        -9.8293124780       -3.4993302663       -1.0042472880
  C        -6.7198117275       -1.5155721631       -7.0057360974
  H        -7.7266400310       -1.9701098143       -7.1795729881
  O        -6.3208037730       -1.2812141421       -5.7891801227
  O        -6.0546670581       -1.2647410752       -8.0219575549
  C        -1.9610306020        5.6962737072       -7.4797868569
  H        -1.8068881661        6.7616764611       -7.4798700689
  O        -2.4613788677        5.1953402046       -6.4147373301
  O        -1.7592038190        5.0404242691       -8.5376948407
  C        -1.7153677193        9.0065729983       -3.7807068554
  H        -1.3518565997        9.2891789052       -4.8285272378
  O        -1.7735635219        7.7204009534       -3.5311974415
  O        -1.9589811591        9.8892286280       -2.9296575010
  C         2.5176986766        8.6527359013       -4.1276241396
  H         2.7356319561        9.0838176512       -5.0545617483
  O         2.0941304229        7.4607563111       -4.0382054964
  O         2.6632020791        9.4136986823       -3.1567247192
  C         1.7405814703        5.3615037054       -8.2026998584
  H         1.4592813282        6.4433815072       -8.3446733349
  O         2.2712544771        5.0744229803       -7.0359036782
  O         1.5374971892        4.4786315137       -9.0204193621
  C         9.4791869119        2.6134878200        3.9079418032
  H         9.6264681644        3.4611325178        4.5867541287
  O         8.5294682966        2.7206869475        3.0468687327
  O        10.1884170796        1.5361363159        4.0354546634
  C         6.6320899766        7.0427804887        3.3240585285
  H         7.5183451153        7.1103565644        4.0025867163
  O         6.4921259472        6.1579139584        2.4473334656
  O         5.8014508194        7.8970951585        3.5804466065
  C         4.7468288793        5.8510846562        6.9391041765
  H         5.6837062732        5.7110173508        7.4566454645
  O         4.3315486404        4.9881730889        6.0840680113
  O         4.1390624477        6.9214380767        7.1338855679
  C         7.5642974957        1.7429307679        7.1823006621
  H         8.1116275708        2.6102062210        7.6466333920
  O         6.7423080014        2.0330978891        6.2208765696
  O         7.8434776238        0.5800715711        7.5931108165
     227
 i =        1, time =        1.000, E =       -15.9562309407
 Cd        -8.6193397965        0.4796427272        3.4771885990
 Cd        -5.8715815745       -0.2571681785        7.1143816345
 Cd        -8.4082343143       -2.1541666326        0.3852112049
 Cd        -6.8927202157       -3.2917843810        3.9610974399
 Cd        -3.6901806515       -3.7004255678        7.3823717132
 Cd        -6.4419950469       -6.2357596586        0.4642680076
 Cd        -4.3123442679       -6.8296220279        3.9052579971
 Cd        -6.1164067157        3.8609321224        2.9056108635
 Cd        -3.6066580887        2.8812457579        6.5903930688
 Cd        -6.7534341785        1.1872473556       -0.3192287254
 Cd        -4.0444459469        0.0755190091        3.0501798432
 Cd        -1.7741849435       -0.3126044677        6.8335853926
 Cd        -6.3661145884       -1.4624956133       -3.4401794304
 Cd        -4.3613816216       -3.1217679360       -0.1745433107
 Cd        -2.2426097262       -3.6216023850        3.6336098721
 Cd         0.1786807211       -3.9616079923        7.0369452295
 Cd        -4.2694077120       -5.9882002901       -2.9988698641
 Cd        -2.2487457932       -6.7966148685        0.6791453274
 Cd         0.0677742394       -7.3030295417        3.8542472010
 Cd        -4.0802776925        7.4119242569        2.4183180015
 Cd        -1.6108283697        6.4879590219        6.2509474127
 Cd        -4.3325429408        4.8128228768       -0.6769532529
 Cd        -1.8304021269        3.6696149896        3.1589266797
 Cd         0.4898075489        3.1633443596        6.7205286469
 Cd        -4.5996004656        2.0001247211       -4.0890422720
 Cd        -2.1629146467        1.0181491176       -0.4517562786
 Cd         0.1384286072       -0.0681529469        3.1344153615
 Cd         2.6424395880       -0.6635528171        6.8958989033
 Cd        -4.1541042968       -0.5351459641       -6.9611308027
 Cd        -2.2031902797       -1.8490849264       -3.4900484988
 Cd         0.0358032512       -2.8475003158       -0.0251021589
 Cd         2.4397207135       -3.8215952838        3.5304560181
 Cd         4.5938315309       -4.2152119705        6.5946968103
 Cd        -2.6317250348       -4.5699658818       -6.0785451512
 Cd        -0.3609565413       -6.1210507163       -3.0631443685
 Cd         1.9864191363       -6.8523522877       -0.0374542826
 Cd         4.3578705254       -7.5049970382        3.0973897084
 Cd        -2.4320205724        8.2867507843       -1.2003921052
 Cd         0.1211450393        6.7911630341        2.0747443595
 Cd         2.2581306135        6.3879479419        5.9826026508
 Cd        -2.2740171136        5.5405738536       -4.1121474458
 Cd         0.1544553134        4.6148750884       -0.9823288263
 Cd         2.6165132504        3.7533826005        2.4610724655
 Cd         4.3939425051        2.5015444213        5.6447294173
 Cd        -2.3864474972        3.0937210329       -7.5399065190
 Cd        -0.1312600992        1.7709383083       -4.3474151661
 Cd         2.1531752080        0.8600432674       -0.9632066127
 Cd         4.3035016755       -0.4402457704        2.5248470509
 Cd         6.4920367890       -0.6517537525        6.0105331025
 Cd         0.4042200644       -0.5927892941       -7.0621501234
 Cd         2.1513120088       -1.8411223229       -3.9633372121
 Cd         4.1299964312       -2.9780136551       -0.5482391281
 Cd         6.9198258422       -3.7969615610        2.8855708625
 Cd         1.0695864625       -4.7691799895       -6.7906917137
 Cd         3.6506482131       -5.7625197704       -3.6177095739
 Cd         5.7329480972       -6.5640024090       -0.3327767350
 Cd         2.4550793689        8.1223271199       -1.1566489055
 Cd         4.4053878037        7.2898067808        1.7948308082
 Cd         2.3804073175        5.2452213747       -4.8086993131
 Cd         4.8189692365        4.7184765826       -1.4283825588
 Cd         6.7582496499        3.8401688612        2.0311417979
 Cd         2.6217482318        2.7829429043       -7.7033855304
 Cd         4.8493007306        1.7846999245       -4.5231588377
 Cd         6.7277192576        1.0649791433       -0.9631197520
 Cd         8.8867497626        0.4155856005        2.4348172794
 Cd         4.3618100616       -0.9226873463       -7.7309291841
 Cd         6.7427756770       -1.9756323831       -4.2012606387
 Cd         8.5291456137       -2.6208096216       -0.2527907424
 Se        -9.0548146726        0.2429384453        0.9182881248
 Se        -6.3727701579       -0.6564872989        4.4183231862
 Se        -3.9345050046       -1.3489371441        8.2966103597
 Se        -6.5831115227       -3.7425543475        1.3880427673
 Se        -4.5790571903       -4.2748973659        4.8597717053
 Se        -4.6122459187       -7.7766369040        1.5328265887
 Se        -6.6423079437        3.9855466725        0.4576207064
 Se        -4.0719551412        2.6208382795        3.9143286456
 Se        -1.6332830282        2.0117898214        7.9251776435
 Se        -6.7117776986        0.9829547708       -3.1654145715
 Se        -4.4070820124       -0.2112018298        0.3948921383
 Se        -2.0530988474       -1.1153159133        4.2594010463
 Se         0.4059927922       -1.5661659013        8.0651040325
 Se        -4.4160737162       -3.1300329643       -2.8047003339
 Se        -2.2374038925       -4.0915852974        0.9472136681
 Se         0.1530345569       -4.8127294688        4.4858202301
 Se        -2.4165582384       -7.4206668963       -2.0539375676
 Se        -0.0668990591       -7.8791991928        1.3095662408
 Se        -4.5521969489        7.5948515614       -0.0126684688
 Se        -1.8468205882        6.3633201401        3.5401380046
 Se         0.4037148219        5.8261469042        7.5859692225
 Se        -4.4660940289        4.5539801061       -3.3489475310
 Se        -2.0809626796        3.7152335682        0.3431667664
 Se         0.4982420632        2.6969733812        3.7287189161
 Se         2.7717940719        1.9958689117        7.6262297572
 Se        -4.6132381632        2.0747560856       -6.9049155550
 Se        -2.2788943283        0.8534978741       -3.1261123893
 Se         0.0145831626       -0.1632350362        0.3854117353
 Se         2.3129834419       -1.3188584688        3.9990570358
 Se         4.8631783954       -1.8843003244        7.7354393664
 Se        -2.0701644959       -1.9664238502       -6.4603824494
 Se        -0.0446894596       -3.1599517807       -2.8087809468
 Se         2.2323048944       -4.2314589920        0.7809404680
 Se         4.8362421796       -4.9531270869        4.0967281125
 Se        -0.7551541890       -6.2848920820       -5.8413935032
 Se         1.9250097112       -7.4790658011       -2.6076500260
 Se         4.2593538637       -8.3792577053        0.7363703250
 Se         0.0356267455        7.3686326138       -0.4913256003
 Se         2.3809456336        6.5252108316        3.1425504681
 Se         0.0437481593        4.4288167386       -3.5940262819
 Se         2.5163761780        3.6274387540       -0.0569365664
 Se         4.7727356501        2.4661416395        3.1253140259
 Se         0.0455124339        1.9299971135       -6.9705567385
 Se         2.2758395777        0.7648602259       -3.6570560771
 Se         4.3766659020       -0.2853702860       -0.0178561513
 Se         6.9677110319       -1.1294634453        3.5582015979
 Se         2.2370258886       -2.2682249513       -6.6837882159
 Se         4.3737409998       -3.1974849624       -3.2156613814
 Se         6.4331390977       -4.1116985765        0.4129195066
 Se         4.8516314106        7.5524133641       -0.7459305536
 Se         4.8774710269        4.5489843916       -4.0122953934
 Se         7.0856294662        3.5935134907       -0.6428651310
 Se         4.7817758460        1.5264770999       -7.5555437423
 Se         6.9186189309        0.6112081912       -3.7073491591
 Se         9.1069098187       -0.0626938421       -0.0923567872
  C         6.9966702506       -6.9497957630       -2.8612716031
  H         7.7649322095       -7.1224747738       -3.6684216540
  O         5.8441020377       -6.4672667445       -3.1400142717
  O         7.2888161789       -7.2742446265       -1.6938718812
  C         3.3950855045       -6.2672819691       -6.9491570464
  H         4.3444066225       -6.8936096686       -7.0753272229
  O         3.0188010224       -5.7908747904       -5.7821893444
  O         2.6177469939       -6.1689160221       -7.9240015860
  C         6.3106270886       -2.9078655077       -7.4910058514
  H         7.1299137504       -3.7048862282       -7.4466889051
  O         6.0084687108       -2.3182014925       -6.3476221594
  O         5.9393747852       -2.4742693985       -8.6124671626
  C         8.9774127683       -3.3708896749       -3.4296313940
  H         9.9250180562       -3.8774829974       -3.1826003730
  O         8.5683134263       -3.4149167399       -4.6046072516
  O         8.2717244670       -2.6967498981       -2.5201958129
  C         9.7980410077       -4.6251877022        2.1809847476
  H        10.6408655401       -5.3318691344        2.3887999993
  O         9.7471505800       -4.1805509999        0.9926816438
  O         9.0287711864       -4.5681798237        3.1870681884
  C        -2.8217177170       -8.8884030453        5.3598599627
  H        -2.4154187803       -9.9024293192        5.4343946394
  O        -1.9848069284       -7.9306186899        5.0423244473
  O        -4.0904413770       -8.7274222477        5.4044261630
  C         2.9969125837       -8.6915855213        5.2874323637
  H         2.6967725338       -9.0398269484        6.2934215078
  O         1.9995054835       -8.3578985009        4.5594591548
  O         4.2233140464       -8.6008795243        4.9160053202
  C         2.8792856649       -5.7053294045        8.2323992281
  H         2.3955873073       -6.3773024893        8.9303283437
  O         2.2191731859       -4.8089017327        7.6163398859
  O         4.1497961903       -5.9035497093        8.1536335613
  C        -2.5347046154       -5.9173520768        8.5219641698
  H        -2.0052498086       -6.7390725628        9.0096019785
  O        -1.9213505327       -5.2583719031        7.5983381784
  O        -3.6522334486       -5.5084662077        8.8927883710
  C        -6.8630607241        2.3027116913        7.3891583095
  H        -7.2086193538        3.3071349018        7.3885257928
  O        -5.6214102343        2.1590915907        7.5337261949
  O        -7.6695430544        1.3702825317        7.1999467907
  C        -4.1170079645        6.2827825080        7.2281580649
  H        -5.2418933127        6.2896177269        7.3832000201
  O        -3.5267514138        5.2290765884        6.7738394022
  O        -3.5910727713        7.4673143140        7.3180226703
  C        -6.2567265948        7.1462137753        4.0781050308
  H        -7.2111390447        7.1649409639        4.6689854642
  O        -5.8090040662        6.0479958039        3.6279365573
  O        -5.6128883654        8.2207703987        3.8488715246
  C        -9.2741835047        2.9617361914        4.4604884471
  H        -9.7855372140        3.8838940690        4.7760086716
  O        -8.0588418356        3.0118615063        4.1192991381
  O       -10.0811838108        1.9793691719        4.3922755685
  C        -9.6032546307       -3.5282060325        4.2551521008
  H       -10.5971720209       -3.6001750875        4.7566807035
  O        -9.3832207964       -2.7227593644        3.2942735261
  O        -8.6788894731       -4.3018378536        4.7631147311
  C        -5.4081387618       -6.0792097294       -6.1561687045
  H        -6.0546960796       -6.5859836395       -6.8890942905
  O        -5.3110848092       -6.5040812601       -4.9653645300
  O        -4.7985314584       -5.0927612545       -6.6853121677
  C        -7.4874781261       -7.2705344487       -1.8348007139
  H        -7.8388434959       -7.7173330376       -2.7530342297
  O        -6.3887684334       -6.5549690725       -1.8843549278
  O        -8.0717187996       -7.4409198950       -0.7458559641
  C        -9.2562428334       -3.4270114671       -2.1219645136
  H        -9.5270787848       -4.0663584857       -2.9594189931
  O        -8.1698211865       -2.7554070943       -2.2726497386
  O        -9.8242197979       -3.4939941000       -1.0092408012
  C        -6.7206957661       -1.5101673961       -7.0045752777
  H        -7.7450574417       -1.9674181007       -7.1698505571
  O        -6.3197647073       -1.2781471921       -5.7991355052
  O        -6.0634229675       -1.2635448512       -8.0155716679
  C        -1.9628827983        5.6954844548       -7.4852938628
  H        -1.7770888886        6.7764005651       -7.4923242406
  O        -2.4611533732        5.1867609552       -6.4088118525
  O        -1.7563466717        5.0405730000       -8.5284074314
  C        -1.7168688889        9.0074822303       -3.7839166132
  H        -1.3493405476        9.2660238074       -4.8465614694
  O        -1.7700371300        7.7196250245       -3.5245986298
  O        -1.9637422822        9.8895752502       -2.9408504015
  C         2.5062190945        8.6538643678       -4.1272910728
  H         2.7131102182        9.0638249498       -5.0476060874
  O         2.0944434442        7.4533376234       -4.0306548059
  O         2.6627286465        9.4111919946       -3.1552830728
  C         1.7411302942        5.3672397234       -8.1968448598
  H         1.4358383610        6.4416008070       -8.3632925476
  O         2.2781172064        5.0766112781       -7.0409883003
  O         1.5312473197        4.4833798276       -9.0175743713
  C         9.4768439415        2.6096230983        3.9000102204
  H         9.6131090334        3.4671477718        4.5843902861
  O         8.5280920353        2.7173378463        3.0492703759
  O        10.1885732279        1.5401896273        4.0331494563
  C         6.6326459125        7.0382756706        3.3282154855
  H         7.5082674956        7.1289998248        4.0070788575
  O         6.4944601179        6.1604773891        2.4466081322
  O         5.7955238418        7.9030065468        3.5813510709
  C         4.7447755005        5.8524700302        6.9353700129
  H         5.7085862008        5.7040540943        7.4370666698
  O         4.3285769793        4.9885452219        6.0814909765
  O         4.1458411966        6.9224478240        7.1372404329
  C         7.5603309323        1.7452823701        7.1878507085
  H         8.1158840311        2.6116602203        7.6593692779
  O         6.7458874398        2.0301904728        6.2244493843
  O         7.8435238996        0.5821719195        7.5895102548
     227
 i =        2, time =        2.000, E =       -15.9728472919
 Cd        -8.6169872422        0.4783193304        3.4768421540
 Cd        -5.8709470193       -0.2575475299        7.1135903119
 Cd        -8.4089399929       -2.1553013866        0.3835811438
 Cd        -6.8896539799       -3.2938380456        3.9621493910