     227
 i =        0, time =        0.000, E =       -39.6374593452
 Cd        -8.6216924880        0.4810107428        3.4775887729
 Cd        -5.8723589632       -0.2566559957        7.1151373767
 Cd        -8.4076147924       -2.1531404527        0.3867588804
 Cd        -6.8957642261       -3.2896665849        3.9600318291
 Cd        -3.6930098048       -3.6992689615        7.3819491709
 Cd        -6.4429261463       -6.2347087238        0.4622469067
 Cd        -4.3123952394       -6.8285875372        3.9039095072
 Cd        -6.1141073353        3.8626235599        2.9066844924
 Cd        -3.6048790416        2.8797284733        6.5917986711
 Cd        -6.7531255596        1.1841266196       -0.3182182747
 Cd        -4.0437606329        0.0729837467        3.0511954168
 Cd        -1.7753257667       -0.3121054857        6.8316599018
 Cd        -6.3661028473       -1.4630135273       -3.4383357626
 Cd        -4.3602814436       -3.1214810613       -0.1759283953
 Cd        -2.2424276819       -3.6242998489        3.6335413818
 Cd         0.1757294635       -3.9625201566        7.0364714760
 Cd        -4.2692200317       -5.9860442556       -3.0005266361
 Cd        -2.2482225396       -6.7972628816        0.6786391664
 Cd         0.0669003827       -7.3030327295        3.8545421700
 Cd        -4.0792754193        7.4105475565        2.4175118797
 Cd        -1.6116442377        6.4880648240        6.2478272306
 Cd        -4.3308002626        4.8127262164       -0.6762739309
 Cd        -1.8326132452        3.6694977750        3.1598212265
 Cd         0.4939817277        3.1637060931        6.7202662426
 Cd        -4.5980154021        1.9988297698       -4.0880170010
 Cd        -2.1651194586        1.0165564496       -0.4536921834
 Cd         0.1376109507       -0.0659106884        3.1336818174
 Cd         2.6419074521       -0.6636939286        6.8958319365
 Cd        -4.1515129292       -0.5348426091       -6.9620217917
 Cd        -2.2012490343       -1.8491984656       -3.4894107829
 Cd         0.0359311218       -2.8494155653       -0.0264680683
 Cd         2.4407298775       -3.8224684908        3.5289587884
 Cd         4.5907434619       -4.2169180472        6.5928471603
 Cd        -2.6321953796       -4.5685798778       -6.0773989300
 Cd        -0.3638438279       -6.1221236347       -3.0620735359
 Cd         1.9882729153       -6.8506852632       -0.0376753302
 Cd         4.3604701588       -7.5063202656        3.0981086138
 Cd        -2.4313710890        8.2839908015       -1.2010761441
 Cd         0.1210964618        6.7915494583        2.0748938605
 Cd         2.2602783261        6.3879934074        5.9824457591
 Cd        -2.2743307721        5.5403016700       -4.1096429978
 Cd         0.1552258413        4.6164378819       -0.9814446932
 Cd         2.6173372932        3.7540356816        2.4616712460
 Cd         4.3934694910        2.5024270436        5.6448470259
 Cd        -2.3839877703        3.0961459608       -7.5397423510
 Cd        -0.1308699873        1.7716472388       -4.3458913396
 Cd         2.1522040622        0.8595996928       -0.9600505658
 Cd         4.3027041934       -0.4425155449        2.5248589789
 Cd         6.4943132815       -0.6514444341        6.0110723312
 Cd         0.4032906214       -0.5920449882       -7.0625722312
 Cd         2.1504065746       -1.8410095193       -3.9631978812
 Cd         4.1282053355       -2.9764966895       -0.5499119195
 Cd         6.9189885741       -3.8001688729        2.8840486736
 Cd         1.0693858855       -4.7693596381       -6.7909688629
 Cd         3.6529341800       -5.7620820022       -3.6150795142
 Cd         5.7341856059       -6.5625995016       -0.3323817960
 Cd         2.4532379782        8.1225833618       -1.1556872380
 Cd         4.4025673150        7.2904811152        1.7928276254
 Cd         2.3800547108        5.2453457502       -4.8107637235
 Cd         4.8184663347        4.7191125514       -1.4277792117
 Cd         6.7589411702        3.8390778732        2.0295448973
 Cd         2.6210634084        2.7844913241       -7.7035228004
 Cd         4.8495943395        1.7843685348       -4.5225056138
 Cd         6.7261500983        1.0662237140       -0.9642295531
 Cd         8.8881450478        0.4141445330        2.4369093904
 Cd         4.3615782352       -0.9213178924       -7.7328888960
 Cd         6.7438649008       -1.9767569930       -4.2031112584
 Cd         8.5272445020       -2.6218905711       -0.2551455218
 Se        -9.0557725106        0.2424574140        0.9180313808
 Se        -6.3745872764       -0.6570220647        4.4225742627
 Se        -3.9358548519       -1.3506397678        8.2925868769
 Se        -6.5830028390       -3.7408669090        1.3890860046
 Se        -4.5802302415       -4.2716541219        4.8585926421
 Se        -4.6110671623       -7.7792240778        1.5343213278
 Se        -6.6407812351        3.9866809498        0.4586064126
 Se        -4.0705866514        2.6241591830        3.9150270775
 Se        -1.6315747320        2.0143859544        7.9219454430
 Se        -6.7106235468        0.9827493806       -3.1628202938
 Se        -4.4077684895       -0.2106461950        0.3970531668
 Se        -2.0534879979       -1.1190641497        4.2604482105
 Se         0.4069246601       -1.5676855049        8.0617057342
 Se        -4.4126107232       -3.1307459794       -2.8028288282
 Se        -2.2371864822       -4.0884616040        0.9473336128
 Se         0.1541797359       -4.8148952714        4.4843326207
 Se        -2.4147106009       -7.4199706225       -2.0529393442
 Se        -0.0662571417       -7.8800811154        1.3078284855
 Se        -4.5519687636        7.5920037884       -0.0122560791
 Se        -1.8482840651        6.3647212661        3.5390459072
 Se         0.4006735392        5.8241498358        7.5878867146
 Se        -4.4655945585        4.5529209660       -3.3484418515
 Se        -2.0798083538        3.7153034916        0.3451575142
 Se         0.4973892782        2.6967113851        3.7286137790
 Se         2.7724753484        1.9958260876        7.6298945277
 Se        -4.6126224962        2.0736182894       -6.9031574659
 Se        -2.2770211290        0.8531533747       -3.1284312065
 Se         0.0138865169       -0.1636477002        0.3858468104
 Se         2.3115473387       -1.3198431962        4.0017354986
 Se         4.8624545925       -1.8855864388        7.7371297607
 Se        -2.0700877949       -1.9675257511       -6.4603372509
 Se        -0.0447057629       -3.1582708631       -2.8090856920
 Se         2.2343306950       -4.2299664240        0.7817840723
 Se         4.8342987615       -4.9516929708        4.0974643468
 Se        -0.7556003326       -6.2829108386       -5.8406699955
 Se         1.9243057511       -7.4784768035       -2.6074198353
 Se         4.2543989663       -8.3809591814        0.7363809319
 Se         0.0386925703        7.3677075300       -0.4939635450
 Se         2.3791568525        6.5289221229        3.1400383851
 Se         0.0465974103        4.4270318221       -3.5936563407
 Se         2.5167269427        3.6273521599       -0.0581806204
 Se         4.7705604635        2.4670139639        3.1233546104
 Se         0.0435933033        1.9323944164       -6.9695738842
 Se         2.2733127965        0.7623703678       -3.6584263160
 Se         4.3816175435       -0.2841549253       -0.0177063702
 Se         6.9670500347       -1.1290204494        3.5565582379
 Se         2.2410869402       -2.2702007814       -6.6798205275
 Se         4.3723294721       -3.1971869108       -3.2130677403
 Se         6.4331938555       -4.1098532443        0.4136420186
 Se         4.8503033307        7.5509093293       -0.7463548497
 Se         4.8776288797        4.5477652435       -4.0091414448
 Se         7.0830986217        3.5950723552       -0.6434567968
 Se         4.7810064642        1.5273410534       -7.5566303287
 Se         6.9188050062        0.6130038217       -3.7081238627
 Se         9.1066871843       -0.0609359671       -0.0919647969
  C         6.9955771113       -6.9586634775       -2.8583426301
  H         7.7780160969       -7.1271873265       -3.6573399650
  O         5.8389952916       -6.4652991204       -3.1445809228
  O         7.2920676004       -7.2683568805       -1.6893132711
  C         3.3939431960       -6.2668607509       -6.9513074648
  H         4.3245440932       -6.8689211647       -7.0591687882
  O         3.0202466073       -5.7860511295       -5.7843136273
  O         2.6220129789       -6.1746538788       -7.9242101403
  C         6.3116555909       -2.9071154185       -7.4921130606
  H         7.0978863851       -3.7212906458       -7.4285512081
  O         6.0096715894       -2.3219711192       -6.3505932827
  O         5.9403243477       -2.4750431756       -8.6116316973
  C         8.9837561036       -3.3697375837       -3.4349055328
  H         9.9249943929       -3.8864043165       -3.1840078659
  O         8.5659407989       -3.4209184445       -4.6048832464
  O         8.2714489672       -2.6971151254       -2.5207012617
  C         9.7902109758       -4.6282247391        2.1768529346
  H        10.6284324694       -5.3337138149        2.3552924638
  O         9.7484501532       -4.1824896055        0.9942458601
  O         9.0219926648       -4.5705851174        3.1873629795
  C        -2.8252708508       -8.8894178348        5.3653894160
  H        -2.3915771747       -9.8892286280        5.4446685031
  O        -1.9808601030       -7.9304545651        5.0436955975
  O        -4.0908415257       -8.7280019527        5.4030844137
  C         3.0047406823       -8.6887063298        5.2919739424
  H         2.6853413808       -9.0312323512        6.2714246943
  O         1.9985977812       -8.3553887881        4.5599054594
  O         4.2197147413       -8.6069092298        4.9235206312
  C         2.8732291572       -5.7090624943        8.2322507888
  H         2.4095730423       -6.3582442170        8.9295273658
  O         2.2236878889       -4.8031284854        7.6183804854
  O         4.1525405945       -5.8988692439        8.1468427445
  C        -2.5324052264       -5.9090323801        8.5168983878
  H        -2.0058427467       -6.7599986745        9.0204193621
  O        -1.9189018681       -5.2527647032        7.5983339134
  O        -3.6521974131       -5.4981014961        8.8936623702
  C        -6.8661340661        2.3082426882        7.3884767521
  H        -7.2433530482        3.2983326111        7.3747512577
  O        -5.6189307919        2.1553364867        7.5292857639
  O        -7.6694328727        1.3672322100        7.2032576312
  C        -4.1128935570        6.2776012356        7.2258109093
  H        -5.2184092536        6.2949225170        7.4003980339
  O        -3.5215502414        5.2331222329        6.7794929280
  O        -3.5956064510        7.4679880815        7.3184340370
  C        -6.2584500423        7.1467273309        4.0778865765
  H        -7.2018864753        7.1620259062        4.6862261037
  O        -5.8042352338        6.0508881806        3.6277903665
  O        -5.6141473350        8.2227071687        3.8530055117
  C        -9.2670155991        2.9624473135        4.4549609073
  H        -9.7760873251        3.8307467380        4.7753730710
  O        -8.0580447847        3.0137717908        4.1153681461
  O       -10.0869615960        1.9755230626        4.3964141791
  C        -9.5997958208       -3.5202239981        4.2555074891
  H       -10.6284324694       -3.6062117458        4.7363993397
  O        -9.3836198173       -2.7271085544        3.2939504316
  O        -8.6749593009       -4.3055307223        4.7674147240
  C        -5.4063829718       -6.0836320759       -6.1576393485
  H        -6.0390997038       -6.5934387315       -6.8768176703
  O        -5.3157147411       -6.5042627408       -4.9638375967
  O        -4.7997118332       -5.0931497246       -6.6842330004
  C        -7.4812021438       -7.2683192216       -1.8337008205
  H        -7.8430239833       -7.7214409635       -2.7403108931
  O        -6.3847231004       -6.5596142310       -1.8855223803
  O        -8.0870004405       -7.4369608581       -0.7449951352
  C        -9.2637717352       -3.4248031045       -2.1287629167
  H        -9.5435102925       -4.0726156799       -2.9624854104
  O        -8.1685743898       -2.7562864935       -2.2769679175
  O        -9.8293124780       -3.4993302663       -1.0042472880
  C        -6.7198117275       -1.5155721631       -7.0057360974
  H        -7.7266400310       -1.9701098143       -7.1795729881
  O        -6.3208037730       -1.2812141421       -5.7891801227
  O        -6.0546670581       -1.2647410752       -8.0219575549
  C        -1.9610306020        5.6962737072       -7.4797868569
  H        -1.8068881661        6.7616764611       -7.4798700689
  O        -2.4613788677        5.1953402046       -6.4147373301
  O        -1.7592038190        5.0404242691       -8.5376948407
  C        -1.7153677193        9.0065729983       -3.7807068554
  H        -1.3518565997        9.2891789052       -4.8285272378
  O        -1.7735635219        7.7204009534       -3.5311974415
  O        -1.9589811591        9.8892286280       -2.9296575010
  C         2.5176986766        8.6527359013       -4.1276241396
  H         2.7356319561        9.0838176512       -5.0545617483
  O         2.0941304229        7.4607563111       -4.0382054964
  O         2.6632020791        9.4136986823       -3.1567247192
  C         1.7405814703        5.3615037054       -8.2026998584
  H         1.4592813282        6.4433815072       -8.3446733349
  O         2.2712544771        5.0744229803       -7.0359036782
  O         1.5374971892        4.4786315137       -9.0204193621
  C         9.4791869119        2.6134878200        3.9079418032
  H         9.6264681644        3.4611325178        4.5867541287
  O         8.5294682966        2.7206869475        3.0468687327
  O        10.1884170796        1.5361363159        4.0354546634
  C         6.6320899766        7.0427804887        3.3240585285
  H         7.5183451153        7.1103565644        4.0025867163
  O         6.4921259472        6.1579139584        2.4473334656
  O         5.8014508194        7.8970951585        3.5804466065
  C         4.7468288793        5.8510846562        6.9391041765
  H         5.6837062732        5.7110173508        7.4566454645
  O         4.3315486404        4.9881730889        6.0840680113
  O         4.1390624477        6.9214380767        7.1338855679
  C         7.5642974957        1.7429307679        7.1823006621
  H         8.1116275708        2.6102062210        7.6466333920
  O         6.7423080014        2.0330978891        6.2208765696
  O         7.8434776238        0.5800715711        7.5931108165
     227
 i =        1, time =        1.000, E =       -39.6512544922
 Cd        -8.6193593146        0.4797004702        3.4771559438
 Cd        -5.8715222582       -0.2571372039        7.1144247476
 Cd        -8.4082776895       -2.1541428377        0.3852241810
 Cd        -6.8927608549       -3.2918178513        3.9610844423
 Cd        -3.6901762858       -3.7004197501        7.3824618172
 Cd        -6.4420049021       -6.2358139581        0.4642203586
 Cd        -4.3123502418       -6.8296987730        3.9052256915
 Cd        -6.1164249176        3.8609563941        2.9055634602
 Cd        -3.6066536157        2.8812508712        6.5904902020
 Cd        -6.7534795231        1.1872661454       -0.3192433316
 Cd        -4.0444785164        0.0755246738        3.0502221792
 Cd        -1.7741680787       -0.3125633707        6.8336989126
 Cd        -6.3661523838       -1.4623911140       -3.4402063340
 Cd        -4.3613590915       -3.1217916449       -0.1745445060
 Cd        -2.2426324272       -3.6215529154        3.6336440026
 Cd         0.1787503711       -3.9616018647        7.0369870988
 Cd        -4.2694251685       -5.9883219046       -2.9988848169
 Cd        -2.2486787749       -6.7967076573        0.6791346292
 Cd         0.0678047826       -7.3030250145        3.8542401136
 Cd        -4.0804066704        7.4119299052        2.4182651735
 Cd        -1.6108341296        6.4879013406        6.2510492742
 Cd        -4.3326189817        4.8128214609       -0.6769949035
 Cd        -1.8304383555        3.6696094731        3.1589525277
 Cd         0.4898107296        3.1633013007        6.7206494198
 Cd        -4.5997413868        2.0001643750       -4.0890087647
 Cd        -2.1629406727        1.0181300535       -0.4517866065
 Cd         0.1384501497       -0.0681886308        3.1344659049
 Cd         2.6424296282       -0.6635628376        6.8960303238
 Cd        -4.1541833096       -0.5351613339       -6.9611462323
 Cd        -2.2032088708       -1.8491187827       -3.4900296641
 Cd         0.0358080968       -2.8475582232       -0.0251065902
 Cd         2.4397040949       -3.8215546581        3.5304836853
 Cd         4.5938089870       -4.2152324783        6.5947499690
 Cd        -2.6317255550       -4.5700338354       -6.0785899209
 Cd        -0.3609683590       -6.1211878326       -3.0631650985
 Cd         1.9863840598       -6.8524396162       -0.0374808122
 Cd         4.3578359689       -7.5051392263        3.0974511507
 Cd        -2.4320719785        8.2867317730       -1.2004341765
 Cd         0.1211457891        6.7911644724        2.0748331876
 Cd         2.2581875459        6.3879217368        5.9827629155
 Cd        -2.2740655738        5.5405629907       -4.1121690579
 Cd         0.1544509195        4.6149018957       -0.9824066572
 Cd         2.6165572705        3.7533242054        2.4609957481
 Cd         4.3939833715        2.5015842076        5.6447234825
 Cd        -2.3865199287        3.0938254900       -7.5398755359
 Cd        -0.1312667760        1.7709882647       -4.3474504447
 Cd         2.1532532742        0.8600307766       -0.9632349105
 Cd         4.3035105874       -0.4402317416        2.5247734582
 Cd         6.4920896966       -0.6517421923        6.0105199667
 Cd         0.4042809363       -0.5927860712       -7.0621301249
 Cd         2.1513853143       -1.8411206733       -3.9633710700
 Cd         4.1300497797       -2.9780459081       -0.5482554533
 Cd         6.9198568974       -3.7969954679        2.8854894644
 Cd         1.0696550227       -4.7693117476       -6.7906447053
 Cd         3.6506901544       -5.7625721364       -3.6177792277
 Cd         5.7330501359       -6.5640880334       -0.3328490975
 Cd         2.4551652997        8.1223067159       -1.1567298611
 Cd         4.4054387229        7.2897831094        1.7948771958
 Cd         2.3804213143        5.2452907589       -4.8087627302
 Cd         4.8190699971        4.7184757064       -1.4284820388
 Cd         6.7582885631        3.8401567538        2.0311617948
 Cd         2.6218249321        2.7829847239       -7.7033927703
 Cd         4.8494574320        1.7846783977       -4.5231141788
 Cd         6.7278162331        1.0650618257       -0.9631651134
 Cd         8.8867595163        0.4156298755        2.4347888470
 Cd         4.3619122610       -0.9226281303       -7.7308864452
 Cd         6.7428410102       -1.9756513068       -4.2012870285
 Cd         8.5291445349       -2.6208254405       -0.2528574936
 Se        -9.0545669307        0.2427413971        0.9183728650
 Se        -6.3727033809       -0.6565539457        4.4182751315
 Se        -3.9345852279       -1.3490276497        8.2962879103
 Se        -6.5830687445       -3.7425239042        1.3880641098
 Se        -4.5789922015       -4.2748331415        4.8596780803
 Se        -4.6122015308       -7.7763205613        1.5329085592
 Se        -6.6420567117        3.9854785603        0.4577892947
 Se        -4.0718285978        2.6208362607        3.9142173965
 Se        -1.6333614911        2.0117043219        7.9247936485
 Se        -6.7114453892        0.9827668108       -3.1654194987
 Se        -4.4069840287       -0.2111644383        0.3949524044
 Se        -2.0531110177       -1.1153483448        4.2593050549
 Se         0.4060000102       -1.5662331484        8.0648437848
 Se        -4.4159594053       -3.1298973366       -2.8045917349
 Se        -2.2374556295       -4.0915339284        0.9471970337
 Se         0.1530750812       -4.8127192157        4.4857386608
 Se        -2.4165843068       -7.4203303334       -2.0539823197
 Se        -0.0669959983       -7.8788779395        1.3095906560
 Se        -4.5518412348        7.5947814753       -0.0125017311
 Se        -1.8466011768        6.3632706433        3.5399600779
 Se         0.4036753336        5.8261770810        7.5855593515
 Se        -4.4658098427        4.5538959653       -3.3489076846
 Se        -2.0809155337        3.7152325263        0.3431383974
 Se         0.4981462273        2.6970378460        3.7286047353
 Se         2.7717510784        1.9958136366        7.6259145492
 Se        -4.6129191875        2.0746436676       -6.9048639233
 Se        -2.2788005141        0.8534519437       -3.1260951329
 Se         0.0145399489       -0.1632341922        0.3853884221
 Se         2.3129935283       -1.3189299329        3.9988976964
 Se         4.8631036037       -1.8843358255        7.7351292391
 Se        -2.0702467071       -1.9663819818       -6.4603115551
 Se        -0.0447731888       -3.1598223318       -2.8087659085
 Se         2.2323125397       -4.2313539197        0.7809017382
 Se         4.8361948323       -4.9529888093        4.0967173206
 Se        -0.7551620939       -6.2845247535       -5.8413776816
 Se         1.9249802098       -7.4787605850       -2.6075207879
 Se         4.2593933307       -8.3789172095        0.7365099639
 Se         0.0357040890        7.3685171192       -0.4911604015
 Se         2.3808121154        6.5252107242        3.1423350766
 Se         0.0436931075        4.4287307905       -3.5939270730
 Se         2.5162880360        3.6274603186       -0.0567545124
 Se         4.7725842496        2.4662072386        3.1253554217
 Se         0.0455210935        1.9297259855       -6.9703639701
 Se         2.2756974600        0.7647544735       -3.6569805402
 Se         4.3765359683       -0.2853940341       -0.0177030048
 Se         6.9676165357       -1.1294772100        3.5582945334
 Se         2.2367907957       -2.2679980599       -6.6837231881
 Se         4.3735535380       -3.1974415913       -3.2155361170
 Se         6.4330587290       -4.1116476419        0.4131045822
 Se         4.8512588147        7.5523663512       -0.7457465316
 Se         4.8772955815        4.5488861345       -4.0120965532
 Se         7.0853685458        3.5933522791       -0.6427875639
 Se         4.7814238496        1.5263198647       -7.5555228768
 Se         6.9183022828        0.6112091593       -3.7073014520
 Se         9.1067124387       -0.0627931436       -0.0921648869
  C         6.9966473797       -6.9496708020       -2.8612773934
  H         7.7649322095       -7.1224747738       -3.6684216540
  O         5.8436231948       -6.4671033636       -3.1399230940
  O         7.2880011769       -7.2738112855       -1.6931972139
  C         3.3951411400       -6.2672135642       -6.9490894179
  H         4.3444066225       -6.8936096686       -7.0753272229
  O         3.0186721816       -5.7905875627       -5.7816123830
  O         2.6174223133       -6.1685430805       -7.9237382520
  C         6.3106246704       -2.9079074340       -7.4908654891
  H         7.1299137504       -3.7048862282       -7.4466889051
  O         6.0084612514       -2.3179621810       -6.3472042472
  O         5.9389891269       -2.4739346201       -8.6122279573
  C         8.9773124775       -3.3709149465       -3.4295822521
  H         9.9250180562       -3.8774829974       -3.1826003730
  O         8.5678639586       -3.4145981640       -4.6044487722
  O         8.2714225358       -2.6966687393       -2.5198496388
  C         9.7979461921       -4.6251504952        2.1809471365
  H        10.6408655401       -5.3318691344        2.3887999993
  O         9.7467540481       -4.1801393622        0.9924723002
  O         9.0279847082       -4.5678578906        3.1869455261
  C        -2.8216799088       -8.8883038240        5.3598606147
  H        -2.4154187803       -9.9024293192        5.4343946394
  O        -1.9846693305       -7.9304007632        5.0420912202
  O        -4.0904215829       -8.7270034084        5.4041589505
  C         2.9968864039       -8.6914808665        5.2874485730
  H         2.6967725338       -9.0398269484        6.2934215078
  O         1.9991549548       -8.3575124041        4.5592442755
  O         4.2233608544       -8.6001075643        4.9148195450
  C         2.8792328647       -5.7053362684        8.2323182509
  H         2.3955873073       -6.3773024893        8.9303283437
  O         2.2187827843       -4.8086255467        7.6159611011
  O         4.1498448090       -5.9031187064        8.1531420243
  C        -2.5346802041       -5.9173640058        8.5218434988
  H        -2.0052498086       -6.7390725628        9.0096019785
  O        -1.9214937230       -5.2578569662        7.5982114103
  O        -3.6522226501       -5.5080262106        8.8923524854
  C        -6.8630400900        2.3027279070        7.3890206759
  H        -7.2086193538        3.3071349018        7.3885257928
  O        -5.6210048730        2.1589089503        7.5333765086
  O        -7.6691447511        1.3699891352        7.1999016054
  C        -4.1170406135        6.2827205685        7.2280625349
  H        -5.2418933127        6.2896177269        7.3832000201
  O        -3.5263185719        5.2288716657        6.7735990088
  O        -3.5907191044        7.4671060464        7.3177531670
  C        -6.2566795418        7.1461287448        4.0781404076
  H        -7.2111390447        7.1649409639        4.6689854642
  O        -5.8087877929        6.0476610589        3.6276786206
  O        -5.6122399412        8.2203725613        3.8483634398
  C        -9.2740762621        2.9616758006        4.4605211745
  H        -9.7855372140        3.8838940690        4.7760086716
  O        -8.0585513864        3.0118007744        4.1191163535
  O       -10.0806597875        1.9788844635        4.3920251250
  C        -9.6031812417       -3.5281645354        4.2551084828
  H       -10.5971720209       -3.6001750875        4.7566807035
  O        -9.3828610838       -2.7227027587        3.2942876009
  O        -8.6780582808       -4.3013391489        4.7627441970
  C        -5.4081402341       -6.0791384044       -6.1560925391
  H        -6.0546960796       -6.5859836395       -6.8890942905
  O        -5.3106711415       -6.5037744802       -4.9647978095
  O        -4.7979356257       -5.0925753646       -6.6850588716
  C        -7.4874320054       -7.2704198793       -1.8348201101
  H        -7.8388434959       -7.7173330376       -2.7530342297
  O        -6.3885015572       -6.5547188436       -1.8840025603
  O        -8.0712998836       -7.4405796663       -0.7455637815
  C        -9.2561379610       -3.4270510667       -2.1219308741
  H        -9.5270787848       -4.0663584857       -2.9594189931
  O        -8.1695788251       -2.7552423915       -2.2725623412
  O        -9.8238654350       -3.4937513039       -1.0089967779
  C        -6.7206535261       -1.5102356323       -7.0044998170
  H        -7.7450574417       -1.9674181007       -7.1698505571
  O        -6.3194302862       -1.2781946702       -5.7987387174
  O        -6.0628201117       -1.2633977571       -8.0152077635
  C        -1.9628050744        5.6954666312       -7.4852206716
  H        -1.7770888886        6.7764005651       -7.4923242406
  O        -2.4609916372        5.1864208521       -6.4085221072
  O        -1.7565320890        5.0398853684       -8.5279750325
  C        -1.7167923469        9.0073970767       -3.7839249044
  H        -1.3493405476        9.2660238074       -4.8465614694
  O        -1.7702615711        7.7191325094       -3.5244168679
  O        -1.9638163424        9.8891745338       -2.9404687838
  C         2.5061522927        8.6537904967       -4.1272925510
  H         2.7131102182        9.0638249498       -5.0476060874
  O         2.0944659003        7.4528977035       -4.0306979883
  O         2.6626104166        9.4109178240       -3.1548690593
  C         1.7410400008        5.3672297663       -8.1967740656
  H         1.4358383610        6.4416008070       -8.3632925476
  O         2.2781535581        5.0762303897       -7.0402448423
  O         1.5314959472        4.4830133098       -9.0172233445
  C         9.4767142066        2.6096080227        3.9000457835
  H         9.6131090334        3.4671477718        4.5843902861
  O         8.5277114935        2.7172029217        3.0489767787
  O        10.1881984789        1.5399098710        4.0327412539
  C         6.6325978273        7.0381773103        3.3282572748
  H         7.5082674956        7.1289998248        4.0070788575
  O         6.4941290912        6.1601347217        2.4465030738
  O         5.7951302216        7.9027813076        3.5809116162
  C         4.7448032854        5.8524263838        6.9352738994
  H         5.7085862008        5.7040540943        7.4370666698
  O         4.3282785734        4.9884239874        6.0813268594
  O         4.1452044558        6.9222393177        7.1367551255
  C         7.5603079013        1.7452871373        7.1877410200
  H         8.1158840311        2.6116602203        7.6593692779
  O         6.7455455299        2.0300382277        6.2243098223
  O         7.8432628477        0.5819562956        7.5891152449
     227
 i =        2, time =        2.000, E =       -39.6793444105
 Cd        -8.6170642517        0.4785503291        3.4767110832
 Cd        -5.8707107179       -0.2574236622        7.1137632943
 Cd        -8.4091141089       -2.1552081996        0.3836303411
 Cd        -6.8898068736       -3.2939752107        3.9620868384