     227
 i =        0, time =        0.000, E =       -10.3131844380
 Cd        -8.6216924880        0.4810107428        3.4775887729
 Cd        -5.8723589632       -0.2566559957        7.1151373767
 Cd        -8.4076147924       -2.1531404527        0.3867588804
 Cd        -6.8957642261       -3.2896665849        3.9600318291
 Cd        -3.6930098048       -3.6992689615        7.3819491709
 Cd        -6.4429261463       -6.2347087238        0.4622469067
 Cd        -4.3123952394       -6.8285875372        3.9039095072
 Cd        -6.1141073353        3.8626235599        2.9066844924
 Cd        -3.6048790416        2.8797284733        6.5917986711
 Cd        -6.7531255596        1.1841266196       -0.3182182747
 Cd        -4.0437606329        0.0729837467        3.0511954168
 Cd        -1.7753257667       -0.3121054857        6.8316599018
 Cd        -6.3661028473       -1.4630135273       -3.4383357626
 Cd        -4.3602814436       -3.1214810613       -0.1759283953
 Cd        -2.2424276819       -3.6242998489        3.6335413818
 Cd         0.1757294635       -3.9625201566        7.0364714760
 Cd        -4.2692200317       -5.9860442556       -3.0005266361
 Cd        -2.2482225396       -6.7972628816        0.6786391664
 Cd         0.0669003827       -7.3030327295        3.8545421700
 Cd        -4.0792754193        7.4105475565        2.4175118797
 Cd        -1.6116442377        6.4880648240        6.2478272306
 Cd        -4.3308002626        4.8127262164       -0.6762739309
 Cd        -1.8326132452        3.6694977750        3.1598212265
 Cd         0.4939817277        3.1637060931        6.7202662426
 Cd        -4.5980154021        1.9988297698       -4.0880170010
 Cd        -2.1651194586        1.0165564496       -0.4536921834
 Cd         0.1376109507       -0.0659106884        3.1336818174
 Cd         2.6419074521       -0.6636939286        6.8958319365
 Cd        -4.1515129292       -0.5348426091       -6.9620217917
 Cd        -2.2012490343       -1.8491984656       -3.4894107829
 Cd         0.0359311218       -2.8494155653       -0.0264680683
 Cd         2.4407298775       -3.8224684908        3.5289587884
 Cd         4.5907434619       -4.2169180472        6.5928471603
 Cd        -2.6321953796       -4.5685798778       -6.0773989300
 Cd        -0.3638438279       -6.1221236347       -3.0620735359
 Cd         1.9882729153       -6.8506852632       -0.0376753302
 Cd         4.3604701588       -7.5063202656        3.0981086138
 Cd        -2.4313710890        8.2839908015       -1.2010761441
 Cd         0.1210964618        6.7915494583        2.0748938605
 Cd         2.2602783261        6.3879934074        5.9824457591
 Cd        -2.2743307721        5.5403016700       -4.1096429978
 Cd         0.1552258413        4.6164378819       -0.9814446932
 Cd         2.6173372932        3.7540356816        2.4616712460
 Cd         4.3934694910        2.5024270436        5.6448470259
 Cd        -2.3839877703        3.0961459608       -7.5397423510
 Cd        -0.1308699873        1.7716472388       -4.3458913396
 Cd         2.1522040622        0.8595996928       -0.9600505658
 Cd         4.3027041934       -0.4425155449        2.5248589789
 Cd         6.4943132815       -0.6514444341        6.0110723312
 Cd         0.4032906214       -0.5920449882       -7.0625722312
 Cd         2.1504065746       -1.8410095193       -3.9631978812
 Cd         4.1282053355       -2.9764966895       -0.5499119195
 Cd         6.9189885741       -3.8001688729        2.8840486736
 Cd         1.0693858855       -4.7693596381       -6.7909688629
 Cd         3.6529341800       -5.7620820022       -3.6150795142
 Cd         5.7341856059       -6.5625995016       -0.3323817960
 Cd         2.4532379782        8.1225833618       -1.1556872380
 Cd         4.4025673150        7.2904811152        1.7928276254
 Cd         2.3800547108        5.2453457502       -4.8107637235
 Cd         4.8184663347        4.7191125514       -1.4277792117
 Cd         6.7589411702        3.8390778732        2.0295448973
 Cd         2.6210634084        2.7844913241       -7.7035228004
 Cd         4.8495943395        1.7843685348       -4.5225056138
 Cd         6.7261500983        1.0662237140       -0.9642295531
 Cd         8.8881450478        0.4141445330        2.4369093904
 Cd         4.3615782352       -0.9213178924       -7.7328888960
 Cd         6.7438649008       -1.9767569930       -4.2031112584
 Cd         8.5272445020       -2.6218905711       -0.2551455218
 Se        -9.0557725106        0.2424574140        0.9180313808
 Se        -6.3745872764       -0.6570220647        4.4225742627
 Se        -3.9358548519       -1.3506397678        8.2925868769
 Se        -6.5830028390       -3.7408669090        1.3890860046
 Se        -4.5802302415       -4.2716541219        4.8585926421
 Se        -4.6110671623       -7.7792240778        1.5343213278
 Se        -6.6407812351        3.9866809498        0.4586064126
 Se        -4.0705866514        2.6241591830        3.9150270775
 Se        -1.6315747320        2.0143859544        7.9219454430
 Se        -6.7106235468        0.9827493806       -3.1628202938
 Se        -4.4077684895       -0.2106461950        0.3970531668
 Se        -2.0534879979       -1.1190641497        4.2604482105
 Se         0.4069246601       -1.5676855049        8.0617057342
 Se        -4.4126107232       -3.1307459794       -2.8028288282
 Se        -2.2371864822       -4.0884616040        0.9473336128
 Se         0.1541797359       -4.8148952714        4.4843326207
 Se        -2.4147106009       -7.4199706225       -2.0529393442
 Se        -0.0662571417       -7.8800811154        1.3078284855
 Se        -4.5519687636        7.5920037884       -0.0122560791
 Se        -1.8482840651        6.3647212661        3.5390459072
 Se         0.4006735392        5.8241498358        7.5878867146
 Se        -4.4655945585        4.5529209660       -3.3484418515
 Se        -2.0798083538        3.7153034916        0.3451575142
 Se         0.4973892782        2.6967113851        3.7286137790
 Se         2.7724753484        1.9958260876        7.6298945277
 Se        -4.6126224962        2.0736182894       -6.9031574659
 Se        -2.2770211290        0.8531533747       -3.1284312065
 Se         0.0138865169       -0.1636477002        0.3858468104
 Se         2.3115473387       -1.3198431962        4.0017354986
 Se         4.8624545925       -1.8855864388        7.7371297607
 Se        -2.0700877949       -1.9675257511       -6.4603372509
 Se        -0.0447057629       -3.1582708631       -2.8090856920
 Se         2.2343306950       -4.2299664240        0.7817840723
 Se         4.8342987615       -4.9516929708        4.0974643468
 Se        -0.7556003326       -6.2829108386       -5.8406699955
 Se         1.9243057511       -7.4784768035       -2.6074198353
 Se         4.2543989663       -8.3809591814        0.7363809319
 Se         0.0386925703        7.3677075300       -0.4939635450
 Se         2.3791568525        6.5289221229        3.1400383851
 Se         0.0465974103        4.4270318221       -3.5936563407
 Se         2.5167269427        3.6273521599       -0.0581806204
 Se         4.7705604635        2.4670139639        3.1233546104
 Se         0.0435933033        1.9323944164       -6.9695738842
 Se         2.2733127965        0.7623703678       -3.6584263160
 Se         4.3816175435       -0.2841549253       -0.0177063702
 Se         6.9670500347       -1.1290204494        3.5565582379
 Se         2.2410869402       -2.2702007814       -6.6798205275
 Se         4.3723294721       -3.1971869108       -3.2130677403
 Se         6.4331938555       -4.1098532443        0.4136420186
 Se         4.8503033307        7.5509093293       -0.7463548497
 Se         4.8776288797        4.5477652435       -4.0091414448
 Se         7.0830986217        3.5950723552       -0.6434567968
 Se         4.7810064642        1.5273410534       -7.5566303287
 Se         6.9188050062        0.6130038217       -3.7081238627
 Se         9.1066871843       -0.0609359671       -0.0919647969
  C         6.9955771113       -6.9586634775       -2.8583426301
  H         7.7780160969       -7.1271873265       -3.6573399650
  O         5.8389952916       -6.4652991204       -3.1445809228
  O         7.2920676004       -7.2683568805       -1.6893132711
  C         3.3939431960       -6.2668607509       -6.9513074648
  H         4.3245440932       -6.8689211647       -7.0591687882
  O         3.0202466073       -5.7860511295       -5.7843136273
  O         2.6220129789       -6.1746538788       -7.9242101403
  C         6.3116555909       -2.9071154185       -7.4921130606
  H         7.0978863851       -3.7212906458       -7.4285512081
  O         6.0096715894       -2.3219711192       -6.3505932827
  O         5.9403243477       -2.4750431756       -8.6116316973
  C         8.9837561036       -3.3697375837       -3.4349055328
  H         9.9249943929       -3.8864043165       -3.1840078659
  O         8.5659407989       -3.4209184445       -4.6048832464
  O         8.2714489672       -2.6971151254       -2.5207012617
  C         9.7902109758       -4.6282247391        2.1768529346
  H        10.6284324694       -5.3337138149        2.3552924638
  O         9.7484501532       -4.1824896055        0.9942458601
  O         9.0219926648       -4.5705851174        3.1873629795
  C        -2.8252708508       -8.8894178348        5.3653894160
  H        -2.3915771747       -9.8892286280        5.4446685031
  O        -1.9808601030       -7.9304545651        5.0436955975
  O        -4.0908415257       -8.7280019527        5.4030844137
  C         3.0047406823       -8.6887063298        5.2919739424
  H         2.6853413808       -9.0312323512        6.2714246943
  O         1.9985977812       -8.3553887881        4.5599054594
  O         4.2197147413       -8.6069092298        4.9235206312
  C         2.8732291572       -5.7090624943        8.2322507888
  H         2.4095730423       -6.3582442170        8.9295273658
  O         2.2236878889       -4.8031284854        7.6183804854
  O         4.1525405945       -5.8988692439        8.1468427445
  C        -2.5324052264       -5.9090323801        8.5168983878
  H        -2.0058427467       -6.7599986745        9.0204193621
  O        -1.9189018681       -5.2527647032        7.5983339134
  O        -3.6521974131       -5.4981014961        8.8936623702
  C        -6.8661340661        2.3082426882        7.3884767521
  H        -7.2433530482        3.2983326111        7.3747512577
  O        -5.6189307919        2.1553364867        7.5292857639
  O        -7.6694328727        1.3672322100        7.2032576312
  C        -4.1128935570        6.2776012356        7.2258109093
  H        -5.2184092536        6.2949225170        7.4003980339
  O        -3.5215502414        5.2331222329        6.7794929280
  O        -3.5956064510        7.4679880815        7.3184340370
  C        -6.2584500423        7.1467273309        4.0778865765
  H        -7.2018864753        7.1620259062        4.6862261037
  O        -5.8042352338        6.0508881806        3.6277903665
  O        -5.6141473350        8.2227071687        3.8530055117
  C        -9.2670155991        2.9624473135        4.4549609073
  H        -9.7760873251        3.8307467380        4.7753730710
  O        -8.0580447847        3.0137717908        4.1153681461
  O       -10.0869615960        1.9755230626        4.3964141791
  C        -9.5997958208       -3.5202239981        4.2555074891
  H       -10.6284324694       -3.6062117458        4.7363993397
  O        -9.3836198173       -2.7271085544        3.2939504316
  O        -8.6749593009       -4.3055307223        4.7674147240
  C        -5.4063829718       -6.0836320759       -6.1576393485
  H        -6.0390997038       -6.5934387315       -6.8768176703
  O        -5.3157147411       -6.5042627408       -4.9638375967
  O        -4.7997118332       -5.0931497246       -6.6842330004
  C        -7.4812021438       -7.2683192216       -1.8337008205
  H        -7.8430239833       -7.7214409635       -2.7403108931
  O        -6.3847231004       -6.5596142310       -1.8855223803
  O        -8.0870004405       -7.4369608581       -0.7449951352
  C        -9.2637717352       -3.4248031045       -2.1287629167
  H        -9.5435102925       -4.0726156799       -2.9624854104
  O        -8.1685743898       -2.7562864935       -2.2769679175
  O        -9.8293124780       -3.4993302663       -1.0042472880
  C        -6.7198117275       -1.5155721631       -7.0057360974
  H        -7.7266400310       -1.9701098143       -7.1795729881
  O        -6.3208037730       -1.2812141421       -5.7891801227
  O        -6.0546670581       -1.2647410752       -8.0219575549
  C        -1.9610306020        5.6962737072       -7.4797868569
  H        -1.8068881661        6.7616764611       -7.4798700689
  O        -2.4613788677        5.1953402046       -6.4147373301
  O        -1.7592038190        5.0404242691       -8.5376948407
  C        -1.7153677193        9.0065729983       -3.7807068554
  H        -1.3518565997        9.2891789052       -4.8285272378
  O        -1.7735635219        7.7204009534       -3.5311974415
  O        -1.9589811591        9.8892286280       -2.9296575010
  C         2.5176986766        8.6527359013       -4.1276241396
  H         2.7356319561        9.0838176512       -5.0545617483
  O         2.0941304229        7.4607563111       -4.0382054964
  O         2.6632020791        9.4136986823       -3.1567247192
  C         1.7405814703        5.3615037054       -8.2026998584
  H         1.4592813282        6.4433815072       -8.3446733349
  O         2.2712544771        5.0744229803       -7.0359036782
  O         1.5374971892        4.4786315137       -9.0204193621
  C         9.4791869119        2.6134878200        3.9079418032
  H         9.6264681644        3.4611325178        4.5867541287
  O         8.5294682966        2.7206869475        3.0468687327
  O        10.1884170796        1.5361363159        4.0354546634
  C         6.6320899766        7.0427804887        3.3240585285
  H         7.5183451153        7.1103565644        4.0025867163
  O         6.4921259472        6.1579139584        2.4473334656
  O         5.8014508194        7.8970951585        3.5804466065
  C         4.7468288793        5.8510846562        6.9391041765
  H         5.6837062732        5.7110173508        7.4566454645
  O         4.3315486404        4.9881730889        6.0840680113
  O         4.1390624477        6.9214380767        7.1338855679
  C         7.5642974957        1.7429307679        7.1823006621
  H         8.1116275708        2.6102062210        7.6466333920
  O         6.7423080014        2.0330978891        6.2208765696
  O         7.8434776238        0.5800715711        7.5931108165
     227
 i =        1, time =        1.000, E =       -10.3225033832
 Cd        -8.6193400092        0.4796359738        3.4771779111
 Cd        -5.8715531415       -0.2571915873        7.1143885205
 Cd        -8.4082182599       -2.1541458963        0.3852266906
 Cd        -6.8927244656       -3.2917982946        3.9610980794
 Cd        -3.6901795027       -3.7003991443        7.3823668848
 Cd        -6.4419786492       -6.2357505563        0.4642789657
 Cd        -4.3123494594       -6.8296113460        3.9052316693
 Cd        -6.1163851855        3.8609272731        2.9055804592
 Cd        -3.6066301557        2.8812320504        6.5903900497
 Cd        -6.7534231574        1.1872357220       -0.3192222510
 Cd        -4.0444196570        0.0755175557        3.0501766310
 Cd        -1.7741892577       -0.3125866643        6.8335652329
 Cd        -6.3660937086       -1.4624626546       -3.4401711905
 Cd        -4.3613603872       -3.1217778383       -0.1745514756
 Cd        -2.2426077567       -3.6215835953        3.6336042121
 Cd         0.1786899126       -3.9615955075        7.0369328340
 Cd        -4.2693774524       -5.9882050487       -2.9988639338
 Cd        -2.2487241877       -6.7966094566        0.6791641775
 Cd         0.0677806358       -7.3030017317        3.8542354180
 Cd        -4.0802719990        7.4119306311        2.4182865961
 Cd        -1.6107937626        6.4879445606        6.2509465713
 Cd        -4.3325232102        4.8128117135       -0.6769458895
 Cd        -1.8303920347        3.6696004789        3.1589352389
 Cd         0.4898051927        3.1633490485        6.7205145576
 Cd        -4.5996030112        2.0001075282       -4.0890224226
 Cd        -2.1628943950        1.0181335257       -0.4517504788
 Cd         0.1384264571       -0.0681604300        3.1344064608
 Cd         2.6424440253       -0.6635577337        6.8958836649
 Cd        -4.1540753956       -0.5351482626       -6.9611280084
 Cd        -2.2031789855       -1.8490922541       -3.4900353977
 Cd         0.0358055423       -2.8474807719       -0.0250987633
 Cd         2.4397164398       -3.8215703433        3.5304595929
 Cd         4.5938389483       -4.2151983089        6.5946773265
 Cd        -2.6317008237       -4.5699659112       -6.0785389987
 Cd        -0.3609631348       -6.1210400902       -3.0631323342
 Cd         1.9864142611       -6.8523358065       -0.0374559337
 Cd         4.3578742737       -7.5050148067        3.0973904620
 Cd        -2.4320379880        8.2867373780       -1.2003608188
 Cd         0.1211451002        6.7911478865        2.0747649928
 Cd         2.2581005317        6.3879440049        5.9826122319
 Cd        -2.2740258842        5.5405551576       -4.1121279197
 Cd         0.1544586106        4.6148642282       -0.9823269531
 Cd         2.6165138540        3.7533701977        2.4610513381
 Cd         4.3939224676        2.5015283805        5.6447061627
 Cd        -2.3864586334        3.0937044958       -7.5399016708
 Cd        -0.1312614632        1.7709196808       -4.3474133079
 Cd         2.1531614008        0.8600301492       -0.9631998555
 Cd         4.3034770015       -0.4402564826        2.5248313770
 Cd         6.4920227658       -0.6517743558        6.0105045498
 Cd         0.4042405792       -0.5927830622       -7.0621398822
 Cd         2.1513025074       -1.8411042446       -3.9633293394
 Cd         4.1299744491       -2.9780149065       -0.5482322367
 Cd         6.9198183771       -3.7969686353        2.8855535541
 Cd         1.0695557570       -4.7691785994       -6.7906845197
 Cd         3.6506285691       -5.7625103860       -3.6177060245
 Cd         5.7329466014       -6.5640064352       -0.3327672371
 Cd         2.4550963347        8.1223107555       -1.1566148408
 Cd         4.4053541231        7.2898003785        1.7948233874
 Cd         2.3804043289        5.2452048315       -4.8087073727
 Cd         4.8189649899        4.7184620197       -1.4283871423
 Cd         6.7582325628        3.8401580478        2.0311395532
 Cd         2.6217726198        2.7829120220       -7.7033795317
 Cd         4.8493106435        1.7846811261       -4.5231450881
 Cd         6.7277062575        1.0649941663       -0.9631067316
 Cd         8.8867434093        0.4155747873        2.4348057969
 Cd         4.3617922327       -0.9226453790       -7.7309300961
 Cd         6.7427676196       -1.9756196807       -4.2012635582
 Cd         8.5291354379       -2.6208035475       -0.2527831595
 Se        -9.0548163750        0.2429210755        0.9182985836
 Se        -6.3727708539       -0.6564818531        4.4183171680
 Se        -3.9345160129       -1.3489324004        8.2965890526
 Se        -6.5831214077       -3.7425437405        1.3880638586
 Se        -4.5790768610       -4.2748664916        4.8597545073
 Se        -4.6122415404       -7.7766348326        1.5328270924
 Se        -6.6423064166        3.9855642308        0.4576581789
 Se        -4.0719728318        2.6208442358        3.9143168250
 Se        -1.6333010829        2.0117655464        7.9251811840
 Se        -6.7117436514        0.9829373734       -3.1654453417
 Se        -4.4070834921       -0.2111968360        0.3948871062
 Se        -2.0531218623       -1.1153340530        4.2594002458
 Se         0.4059977632       -1.5661511600        8.0651125076
 Se        -4.4160838819       -3.1300169481       -2.8046892873
 Se        -2.2374259402       -4.0915928730        0.9472104001
 Se         0.1530471910       -4.8127464630        4.4858147131
 Se        -2.4165603679       -7.4206659591       -2.0539421156
 Se        -0.0669284678       -7.8791898462        1.3095475035
 Se        -4.5521880998        7.5948516000       -0.0126389183
 Se        -1.8467998641        6.3633116573        3.5401119476
 Se         0.4037109132        5.8261554288        7.5859474600
 Se        -4.4660825357        4.5539764145       -3.3489535045
 Se        -2.0809816717        3.7152452672        0.3431758915
 Se         0.4982411629        2.6969884210        3.7287035351
 Se         2.7717991088        1.9958739973        7.6262492005
 Se        -4.6132310592        2.0747779137       -6.9049164363
 Se        -2.2788997087        0.8535179203       -3.1261057860
 Se         0.0145683047       -0.1632265177        0.3854044550
 Se         2.3129741482       -1.3188975617        3.9990404486
 Se         4.8631700584       -1.8842982553        7.7354495001
 Se        -2.0701871868       -1.9664229018       -6.4603869575
 Se        -0.0447052882       -3.1599487891       -2.8087884821
 Se         2.2323190594       -4.2314688808        0.7809419157
 Se         4.8362448169       -4.9531165815        4.0967247001
 Se        -0.7551494378       -6.2848800891       -5.8413952125
 Se         1.9250136383       -7.4790817117       -2.6076468599
 Se         4.2593580987       -8.3792423769        0.7363802401
 Se         0.0356325047        7.3686350973       -0.4913429960
 Se         2.3809373331        6.5252149541        3.1425177009
 Se         0.0437349855        4.4288311288       -3.5940175958
 Se         2.5163923943        3.6274381361       -0.0568866809
 Se         4.7727248111        2.4661647145        3.1253203341
 Se         0.0455167139        1.9299994097       -6.9705397236
 Se         2.2758443682        0.7648540637       -3.6570701532
 Se         4.3766688475       -0.2853666517       -0.0178344513
 Se         6.9677231592       -1.1294439526        3.5582204628
 Se         2.2370268826       -2.2682139146       -6.6837814541
 Se         4.3737525993       -3.1974918095       -3.2156711329
 Se         6.4331496107       -4.1116944992        0.4129380921
 Se         4.8516083906        7.5524211327       -0.7459388974
 Se         4.8774947238        4.5489935818       -4.0122719317
 Se         7.0856298279        3.5934924132       -0.6428935127
 Se         4.7817533302        1.5264560246       -7.5555477242
 Se         6.9186066753        0.6112200371       -3.7073672496
 Se         9.1069026931       -0.0626852469       -0.0923549741
  C         6.9966772780       -6.9498341586       -2.8612698239
  H         7.7649322095       -7.1224747738       -3.6684216540
  O         5.8440721192       -6.4672609441       -3.1400720591
  O         7.2886957739       -7.2742100637       -1.6937556997
  C         3.3950684099       -6.2673029873       -6.9491778260
  H         4.3444066225       -6.8936096686       -7.0753272229
  O         3.0188347735       -5.7909101444       -5.7821087950
  O         2.6177483307       -6.1689417962       -7.9240112299
  C         6.3106278316       -2.9078526254       -7.4910489793
  H         7.1299137504       -3.7048862282       -7.4466889051
  O         6.0085230796       -2.3182106856       -6.3475367904
  O         5.9393945629       -2.4742750956       -8.6124861774
  C         8.9774435838       -3.3708819099       -3.4296464933
  H         9.9250180562       -3.8774829974       -3.1826003730
  O         8.5683185251       -3.4149091243       -4.6046270946
  O         8.2717543610       -2.6967210289       -2.5201286994
  C         9.7980701408       -4.6251991345        2.1809963040
  H        10.6408655401       -5.3318691344        2.3887999993
  O         9.7471742751       -4.1805502275        0.9926429571
  O         9.0287154413       -4.5681702509        3.1870637264
  C        -2.8217293340       -8.8884335321        5.3598597624
  H        -2.4154187803       -9.9024293192        5.4343946394
  O        -1.9847735855       -7.9306579034        5.0423451475
  O        -4.0904579699       -8.7274640393        5.4044395954
  C         2.9969206277       -8.6916176776        5.2874273833
  H         2.6967725338       -9.0398269484        6.2934215078
  O         1.9994204115       -8.3579098500        4.5594518631
  O         4.2233464325       -8.6007548006        4.9157685091
  C         2.8793018883       -5.7053272954        8.2324241092
  H         2.3955873073       -6.3773024893        8.9303283437
  O         2.2190797557       -4.8088827504        7.6163781890
  O         4.1498201866       -5.9035344042        8.1536482616
  C        -2.5347121160       -5.9173484115        8.5220012473
  H        -2.0052498086       -6.7390725628        9.0096019785
  O        -1.9213771801       -5.2583910636        7.5983493521
  O        -3.6522402694       -5.5084616276        8.8928051159
  C        -6.8630670641        2.3027067089        7.3892005989
  H        -7.2086193538        3.3071349018        7.3885257928
  O        -5.6213733670        2.1591188519        7.5337389007
  O        -7.6695798083        1.3702950312        7.1999576339
  C        -4.1169979327        6.2828015395        7.2281874176
  H        -5.2418933127        6.2896177269        7.3832000201
  O        -3.5267385363        5.2290712522        6.7738583298
  O        -3.5911058489        7.4673413637        7.3180650310
  C        -6.2567410524        7.1462399019        4.0780941609
  H        -7.2111390447        7.1649409639        4.6689854642
  O        -5.8090523316        6.0479351152        3.6279162673
  O        -5.6128598415        8.2207725808        3.8488144669
  C        -9.2742164562        2.9617547471        4.4604783913
  H        -9.7855372140        3.8838940690        4.7760086716
  O        -8.0588538614        3.0118937697        4.1192980768
  O       -10.0811705206        1.9793398539        4.3922430502
  C        -9.6032771803       -3.5282187830        4.2551655029
  H       -10.5971720209       -3.6001750875        4.7566807035
  O        -9.3833033139       -2.7227849159        3.2942775178
  O        -8.6787724295       -4.3017785027        4.7630597538
  C        -5.4081383094       -6.0792316448       -6.1561921071
  H        -6.0546960796       -6.5859836395       -6.8890942905
  O        -5.3110872427       -6.5041142373       -4.9653019813
  O        -4.7984965676       -5.0927658438       -6.6853301672
  C        -7.4874922971       -7.2705696513       -1.8347947543
  H        -7.8388434959       -7.7173330376       -2.7530342297
  O        -6.3887747128       -6.5550028741       -1.8843465644
  O        -8.0717340312       -7.4409414833       -0.7458620668
  C        -9.2562750566       -3.4269992997       -2.1219748497
  H        -9.5270787848       -4.0663584857       -2.9594189931
  O        -8.1698470433       -2.7554179347       -2.2726952910
  O        -9.8242507282       -3.4939942326       -1.0092389081
  C        -6.7207087448       -1.5101464298       -7.0045984638
  H        -7.7450574417       -1.9674181007       -7.1698505571
  O        -6.3198339194       -1.2781334310       -5.7991051231
  O        -6.0633983966       -1.2635094719       -8.0155670607
  C        -1.9629066798        5.6954899314       -7.4853163516
  H        -1.7770888886        6.7764005651       -7.4923242406
  O        -2.4611827039        5.1867636085       -6.4087778761
  O        -1.7563710763        5.0405318296       -8.5284112412
  C        -1.7168924073        9.0075083947       -3.7839140656
  H        -1.3493405476        9.2660238074       -4.8465614694
  O        -1.7700401504        7.7195742400       -3.5246395320
  O        -1.9637450961        9.8896125129       -2.9408746273
  C         2.5062396201        8.6538870654       -4.1272906186
  H         2.7131102182        9.0638249498       -5.0476060874
  O         2.0944573920        7.4533161371       -4.0306954297
  O         2.6627525983        9.4111999772       -3.1552912181
  C         1.7411580378        5.3672427829       -8.1968666120
  H         1.4358383610        6.4416008070       -8.3632925476
  O         2.2781428461        5.0766382050       -7.0408770073
  O         1.5312303718        4.4834002446       -9.0176111945
  C         9.4768838039        2.6096277304        3.8999992933
  H         9.6131090334        3.4671477718        4.5843902861
  O         8.5280687628        2.7173614904        3.0492377321
  O        10.1885852276        1.5401860689        4.0331474139
  C         6.6326606872        7.0383058929        3.3282026453
  H         7.5082674956        7.1289998248        4.0070788575
  O         6.4945044918        6.1604675087        2.4465885983
  O         5.7955359586        7.9030291022        3.5813465924
  C         4.7447669633        5.8524834410        6.9353995449
  H         5.7085862008        5.7040540943        7.4370666698
  O         4.3286117530        4.9885619615        6.0815286876
  O         4.1457832145        6.9224402606        7.1372343600
  C         7.5603380088        1.7452809053        7.1878844115
  H         8.1158840311        2.6116602203        7.6593692779
  O         6.7459044434        2.0302353870        6.2244703375
  O         7.8435369139        0.5821762655        7.5895527100
     227
 i =        2, time =        2.000, E =       -10.3377158618
 Cd        -8.6169877457        0.4782922897        3.4767994069
 Cd        -5.8708336662       -0.2576413219        7.1136177265
 Cd        -8.4088761460       -2.1552191735        0.3836426536
 Cd        -6.8896733698       -3.2938923573        3.9621552759