     227
 i =        0, time =        0.000, E =       -16.9571127943
 Cd        -8.6216924880        0.4810107428        3.4775887729
 Cd        -5.8723589632       -0.2566559957        7.1151373767
 Cd        -8.4076147924       -2.1531404527        0.3867588804
 Cd        -6.8957642261       -3.2896665849        3.9600318291
 Cd        -3.6930098048       -3.6992689615        7.3819491709
 Cd        -6.4429261463       -6.2347087238        0.4622469067
 Cd        -4.3123952394       -6.8285875372        3.9039095072
 Cd        -6.1141073353        3.8626235599        2.9066844924
 Cd        -3.6048790416        2.8797284733        6.5917986711
 Cd        -6.7531255596        1.1841266196       -0.3182182747
 Cd        -4.0437606329        0.0729837467        3.0511954168
 Cd        -1.7753257667       -0.3121054857        6.8316599018
 Cd        -6.3661028473       -1.4630135273       -3.4383357626
 Cd        -4.3602814436       -3.1214810613       -0.1759283953
 Cd        -2.2424276819       -3.6242998489        3.6335413818
 Cd         0.1757294635       -3.9625201566        7.0364714760
 Cd        -4.2692200317       -5.9860442556       -3.0005266361
 Cd        -2.2482225396       -6.7972628816        0.6786391664
 Cd         0.0669003827       -7.3030327295        3.8545421700
 Cd        -4.0792754193        7.4105475565        2.4175118797
 Cd        -1.6116442377        6.4880648240        6.2478272306
 Cd        -4.3308002626        4.8127262164       -0.6762739309
 Cd        -1.8326132452        3.6694977750        3.1598212265
 Cd         0.4939817277        3.1637060931        6.7202662426
 Cd        -4.5980154021        1.9988297698       -4.0880170010
 Cd        -2.1651194586        1.0165564496       -0.4536921834
 Cd         0.1376109507       -0.0659106884        3.1336818174
 Cd         2.6419074521       -0.6636939286        6.8958319365
 Cd        -4.1515129292       -0.5348426091       -6.9620217917
 Cd        -2.2012490343       -1.8491984656       -3.4894107829
 Cd         0.0359311218       -2.8494155653       -0.0264680683
 Cd         2.4407298775       -3.8224684908        3.5289587884
 Cd         4.5907434619       -4.2169180472        6.5928471603
 Cd        -2.6321953796       -4.5685798778       -6.0773989300
 Cd        -0.3638438279       -6.1221236347       -3.0620735359
 Cd         1.9882729153       -6.8506852632       -0.0376753302
 Cd         4.3604701588       -7.5063202656        3.0981086138
 Cd        -2.4313710890        8.2839908015       -1.2010761441
 Cd         0.1210964618        6.7915494583        2.0748938605
 Cd         2.2602783261        6.3879934074        5.9824457591
 Cd        -2.2743307721        5.5403016700       -4.1096429978
 Cd         0.1552258413        4.6164378819       -0.9814446932
 Cd         2.6173372932        3.7540356816        2.4616712460
 Cd         4.3934694910        2.5024270436        5.6448470259
 Cd        -2.3839877703        3.0961459608       -7.5397423510
 Cd        -0.1308699873        1.7716472388       -4.3458913396
 Cd         2.1522040622        0.8595996928       -0.9600505658
 Cd         4.3027041934       -0.4425155449        2.5248589789
 Cd         6.4943132815       -0.6514444341        6.0110723312
 Cd         0.4032906214       -0.5920449882       -7.0625722312
 Cd         2.1504065746       -1.8410095193       -3.9631978812
 Cd         4.1282053355       -2.9764966895       -0.5499119195
 Cd         6.9189885741       -3.8001688729        2.8840486736
 Cd         1.0693858855       -4.7693596381       -6.7909688629
 Cd         3.6529341800       -5.7620820022       -3.6150795142
 Cd         5.7341856059       -6.5625995016       -0.3323817960
 Cd         2.4532379782        8.1225833618       -1.1556872380
 Cd         4.4025673150        7.2904811152        1.7928276254
 Cd         2.3800547108        5.2453457502       -4.8107637235
 Cd         4.8184663347        4.7191125514       -1.4277792117
 Cd         6.7589411702        3.8390778732        2.0295448973
 Cd         2.6210634084        2.7844913241       -7.7035228004
 Cd         4.8495943395        1.7843685348       -4.5225056138
 Cd         6.7261500983        1.0662237140       -0.9642295531
 Cd         8.8881450478        0.4141445330        2.4369093904
 Cd         4.3615782352       -0.9213178924       -7.7328888960
 Cd         6.7438649008       -1.9767569930       -4.2031112584
 Cd         8.5272445020       -2.6218905711       -0.2551455218
 Se        -9.0557725106        0.2424574140        0.9180313808
 Se        -6.3745872764       -0.6570220647        4.4225742627
 Se        -3.9358548519       -1.3506397678        8.2925868769
 Se        -6.5830028390       -3.7408669090        1.3890860046
 Se        -4.5802302415       -4.2716541219        4.8585926421
 Se        -4.6110671623       -7.7792240778        1.5343213278
 Se        -6.6407812351        3.9866809498        0.4586064126
 Se        -4.0705866514        2.6241591830        3.9150270775
 Se        -1.6315747320        2.0143859544        7.9219454430
 Se        -6.7106235468        0.9827493806       -3.1628202938
 Se        -4.4077684895       -0.2106461950        0.3970531668
 Se        -2.0534879979       -1.1190641497        4.2604482105
 Se         0.4069246601       -1.5676855049        8.0617057342
 Se        -4.4126107232       -3.1307459794       -2.8028288282
 Se        -2.2371864822       -4.0884616040        0.9473336128
 Se         0.1541797359       -4.8148952714        4.4843326207
 Se        -2.4147106009       -7.4199706225       -2.0529393442
 Se        -0.0662571417       -7.8800811154        1.3078284855
 Se        -4.5519687636        7.5920037884       -0.0122560791
 Se        -1.8482840651        6.3647212661        3.5390459072
 Se         0.4006735392        5.8241498358        7.5878867146
 Se        -4.4655945585        4.5529209660       -3.3484418515
 Se        -2.0798083538        3.7153034916        0.3451575142
 Se         0.4973892782        2.6967113851        3.7286137790
 Se         2.7724753484        1.9958260876        7.6298945277
 Se        -4.6126224962        2.0736182894       -6.9031574659
 Se        -2.2770211290        0.8531533747       -3.1284312065
 Se         0.0138865169       -0.1636477002        0.3858468104
 Se         2.3115473387       -1.3198431962        4.0017354986
 Se         4.8624545925       -1.8855864388        7.7371297607
 Se        -2.0700877949       -1.9675257511       -6.4603372509
 Se        -0.0447057629       -3.1582708631       -2.8090856920
 Se         2.2343306950       -4.2299664240        0.7817840723
 Se         4.8342987615       -4.9516929708        4.0974643468
 Se        -0.7556003326       -6.2829108386       -5.8406699955
 Se         1.9243057511       -7.4784768035       -2.6074198353
 Se         4.2543989663       -8.3809591814        0.7363809319
 Se         0.0386925703        7.3677075300       -0.4939635450
 Se         2.3791568525        6.5289221229        3.1400383851
 Se         0.0465974103        4.4270318221       -3.5936563407
 Se         2.5167269427        3.6273521599       -0.0581806204
 Se         4.7705604635        2.4670139639        3.1233546104
 Se         0.0435933033        1.9323944164       -6.9695738842
 Se         2.2733127965        0.7623703678       -3.6584263160
 Se         4.3816175435       -0.2841549253       -0.0177063702
 Se         6.9670500347       -1.1290204494        3.5565582379
 Se         2.2410869402       -2.2702007814       -6.6798205275
 Se         4.3723294721       -3.1971869108       -3.2130677403
 Se         6.4331938555       -4.1098532443        0.4136420186
 Se         4.8503033307        7.5509093293       -0.7463548497
 Se         4.8776288797        4.5477652435       -4.0091414448
 Se         7.0830986217        3.5950723552       -0.6434567968
 Se         4.7810064642        1.5273410534       -7.5566303287
 Se         6.9188050062        0.6130038217       -3.7081238627
 Se         9.1066871843       -0.0609359671       -0.0919647969
  C         6.9955771113       -6.9586634775       -2.8583426301
  H         7.7780160969       -7.1271873265       -3.6573399650
  O         5.8389952916       -6.4652991204       -3.1445809228
  O         7.2920676004       -7.2683568805       -1.6893132711
  C         3.3939431960       -6.2668607509       -6.9513074648
  H         4.3245440932       -6.8689211647       -7.0591687882
  O         3.0202466073       -5.7860511295       -5.7843136273
  O         2.6220129789       -6.1746538788       -7.9242101403
  C         6.3116555909       -2.9071154185       -7.4921130606
  H         7.0978863851       -3.7212906458       -7.4285512081
  O         6.0096715894       -2.3219711192       -6.3505932827
  O         5.9403243477       -2.4750431756       -8.6116316973
  C         8.9837561036       -3.3697375837       -3.4349055328
  H         9.9249943929       -3.8864043165       -3.1840078659
  O         8.5659407989       -3.4209184445       -4.6048832464
  O         8.2714489672       -2.6971151254       -2.5207012617
  C         9.7902109758       -4.6282247391        2.1768529346
  H        10.6284324694       -5.3337138149        2.3552924638
  O         9.7484501532       -4.1824896055        0.9942458601
  O         9.0219926648       -4.5705851174        3.1873629795
  C        -2.8252708508       -8.8894178348        5.3653894160
  H        -2.3915771747       -9.8892286280        5.4446685031
  O        -1.9808601030       -7.9304545651        5.0436955975
  O        -4.0908415257       -8.7280019527        5.4030844137
  C         3.0047406823       -8.6887063298        5.2919739424
  H         2.6853413808       -9.0312323512        6.2714246943
  O         1.9985977812       -8.3553887881        4.5599054594
  O         4.2197147413       -8.6069092298        4.9235206312
  C         2.8732291572       -5.7090624943        8.2322507888
  H         2.4095730423       -6.3582442170        8.9295273658
  O         2.2236878889       -4.8031284854        7.6183804854
  O         4.1525405945       -5.8988692439        8.1468427445
  C        -2.5324052264       -5.9090323801        8.5168983878
  H        -2.0058427467       -6.7599986745        9.0204193621
  O        -1.9189018681       -5.2527647032        7.5983339134
  O        -3.6521974131       -5.4981014961        8.8936623702
  C        -6.8661340661        2.3082426882        7.3884767521
  H        -7.2433530482        3.2983326111        7.3747512577
  O        -5.6189307919        2.1553364867        7.5292857639
  O        -7.6694328727        1.3672322100        7.2032576312
  C        -4.1128935570        6.2776012356        7.2258109093
  H        -5.2184092536        6.2949225170        7.4003980339
  O        -3.5215502414        5.2331222329        6.7794929280
  O        -3.5956064510        7.4679880815        7.3184340370
  C        -6.2584500423        7.1467273309        4.0778865765
  H        -7.2018864753        7.1620259062        4.6862261037
  O        -5.8042352338        6.0508881806        3.6277903665
  O        -5.6141473350        8.2227071687        3.8530055117
  C        -9.2670155991        2.9624473135        4.4549609073
  H        -9.7760873251        3.8307467380        4.7753730710
  O        -8.0580447847        3.0137717908        4.1153681461
  O       -10.0869615960        1.9755230626        4.3964141791
  C        -9.5997958208       -3.5202239981        4.2555074891
  H       -10.6284324694       -3.6062117458        4.7363993397
  O        -9.3836198173       -2.7271085544        3.2939504316
  O        -8.6749593009       -4.3055307223        4.7674147240
  C        -5.4063829718       -6.0836320759       -6.1576393485
  H        -6.0390997038       -6.5934387315       -6.8768176703
  O        -5.3157147411       -6.5042627408       -4.9638375967
  O        -4.7997118332       -5.0931497246       -6.6842330004
  C        -7.4812021438       -7.2683192216       -1.8337008205
  H        -7.8430239833       -7.7214409635       -2.7403108931
  O        -6.3847231004       -6.5596142310       -1.8855223803
  O        -8.0870004405       -7.4369608581       -0.7449951352
  C        -9.2637717352       -3.4248031045       -2.1287629167
  H        -9.5435102925       -4.0726156799       -2.9624854104
  O        -8.1685743898       -2.7562864935       -2.2769679175
  O        -9.8293124780       -3.4993302663       -1.0042472880
  C        -6.7198117275       -1.5155721631       -7.0057360974
  H        -7.7266400310       -1.9701098143       -7.1795729881
  O        -6.3208037730       -1.2812141421       -5.7891801227
  O        -6.0546670581       -1.2647410752       -8.0219575549
  C        -1.9610306020        5.6962737072       -7.4797868569
  H        -1.8068881661        6.7616764611       -7.4798700689
  O        -2.4613788677        5.1953402046       -6.4147373301
  O        -1.7592038190        5.0404242691       -8.5376948407
  C        -1.7153677193        9.0065729983       -3.7807068554
  H        -1.3518565997        9.2891789052       -4.8285272378
  O        -1.7735635219        7.7204009534       -3.5311974415
  O        -1.9589811591        9.8892286280       -2.9296575010
  C         2.5176986766        8.6527359013       -4.1276241396
  H         2.7356319561        9.0838176512       -5.0545617483
  O         2.0941304229        7.4607563111       -4.0382054964
  O         2.6632020791        9.4136986823       -3.1567247192
  C         1.7405814703        5.3615037054       -8.2026998584
  H         1.4592813282        6.4433815072       -8.3446733349
  O         2.2712544771        5.0744229803       -7.0359036782
  O         1.5374971892        4.4786315137       -9.0204193621
  C         9.4791869119        2.6134878200        3.9079418032
  H         9.6264681644        3.4611325178        4.5867541287
  O         8.5294682966        2.7206869475        3.0468687327
  O        10.1884170796        1.5361363159        4.0354546634
  C         6.6320899766        7.0427804887        3.3240585285
  H         7.5183451153        7.1103565644        4.0025867163
  O         6.4921259472        6.1579139584        2.4473334656
  O         5.8014508194        7.8970951585        3.5804466065
  C         4.7468288793        5.8510846562        6.9391041765
  H         5.6837062732        5.7110173508        7.4566454645
  O         4.3315486404        4.9881730889        6.0840680113
  O         4.1390624477        6.9214380767        7.1338855679
  C         7.5642974957        1.7429307679        7.1823006621
  H         8.1116275708        2.6102062210        7.6466333920
  O         6.7423080014        2.0330978891        6.2208765696
  O         7.8434776238        0.5800715711        7.5931108165
     227
 i =        1, time =        1.000, E =       -16.9665852809
 Cd        -8.6193433707        0.4796493586        3.4771765543
 Cd        -5.8715544498       -0.2571758927        7.1143932029
 Cd        -8.4082327251       -2.1541504627        0.3852224175
 Cd        -6.8927300816       -3.2917984502        3.9610954131
 Cd        -3.6901790093       -3.7004094480        7.3823850450
 Cd        -6.4419872658       -6.2357641446        0.4642655556
 Cd        -4.3123482319       -6.8296296181        3.9052369671
 Cd        -6.1163974151        3.8609337225        2.9055848364
 Cd        -3.6066411660        2.8812387898        6.5904086583
 Cd        -6.7534358117        1.1872439134       -0.3192275568
 Cd        -4.0444364814        0.0755192062        3.0501855879
 Cd        -1.7741844402       -0.3125868046        6.8335939897
 Cd        -6.3661091446       -1.4624578368       -3.4401795401
 Cd        -4.3613651988       -3.1217778842       -0.1745482474
 Cd        -2.2426126261       -3.6215825393        3.6336126516
 Cd         0.1786986574       -3.9615996973        7.0369454397
 Cd        -4.2693934523       -5.9882248112       -2.9988691553
 Cd        -2.2487212797       -6.7966282331        0.6791543129
 Cd         0.0677834753       -7.3030125458        3.8542390978
 Cd        -4.0802976694        7.4119288064        2.4182905707
 Cd        -1.6108096306        6.4879400966        6.2509651487
 Cd        -4.3325450500        4.8128160912       -0.6769564031
 Cd        -1.8304027302        3.6696055947        3.1589361972
 Cd         0.4898067466        3.1633393476        6.7205421001
 Cd        -4.5996270584        2.0001218519       -4.0890246949
 Cd        -2.1629075038        1.0181366015       -0.4517583488
 Cd         0.1384312215       -0.0681637034        3.1344191896
 Cd         2.6424403573       -0.6635574793        6.8959135679
 Cd        -4.1541019189       -0.5351501011       -6.9611318713
 Cd        -2.2031870178       -1.8490952368       -3.4900374848
 Cd         0.0358054474       -2.8474992880       -0.0251009986
 Cd         2.4397152113       -3.8215734910        3.5304629740
 Cd         4.5938315780       -4.2152077892        6.5946951015
 Cd        -2.6317111518       -4.5699780079       -6.0785495926
 Cd        -0.3609624828       -6.1210690958       -3.0631411128
 Cd         1.9864100057       -6.8523583042       -0.0374599684
 Cd         4.3578664074       -7.5050327841        3.0974013230
 Cd        -2.4320396926        8.2867395108       -1.2003817306
 Cd         0.1211452365        6.7911543906        2.0747721597
 Cd         2.2581236535        6.3879408046        5.9826369502
 Cd        -2.2740307617        5.5405610719       -4.1121400415
 Cd         0.1544564412        4.6148735671       -0.9823416490
 Cd         2.6165214310        3.7533648862        2.4610464656
 Cd         4.3939382487        2.5015423142        5.6447148506
 Cd        -2.3864667860        3.0937304812       -7.5398979852
 Cd        -0.1312620368        1.7709364505       -4.3474203658
 Cd         2.1531811672        0.8600333604       -0.9632077084
 Cd         4.3034888919       -0.4402494510        2.5248247677
 Cd         6.4920381018       -0.6517634973        6.0105142537
 Cd         0.4042428350       -0.5927850853       -7.0621404128
 Cd         2.1513196214       -1.8411115175       -3.9633387016
 Cd         4.1299932196       -2.9780201360       -0.5482380201
 Cd         6.9198271270       -3.7969717365        2.8855462006
 Cd         1.0695812424       -4.7692029372       -6.7906789773
 Cd         3.6506443594       -5.7625236535       -3.6177200761
 Cd         5.7329656006       -6.5640200459       -0.3327843242
 Cd         2.4551045480        8.1223139082       -1.1566438129
 Cd         4.4053775825        7.2897986647        1.7948349815
 Cd         2.3804080275        5.2452242436       -4.8087153761
 Cd         4.8189848077        4.7184679018       -1.4284030213
 Cd         6.7582466689        3.8401603644        2.0311441140
 Cd         2.6217758798        2.7829327446       -7.7033832736
 Cd         4.8493344611        1.7846851662       -4.5231428013
 Cd         6.7277290610        1.0650026550       -0.9631203291
 Cd         8.8867477167        0.4155874983        2.4348056731
 Cd         4.3618181330       -0.9226526252       -7.7309218840
 Cd         6.7427827991       -1.9756285607       -4.2012670570
 Cd         8.5291394149       -2.6208090316       -0.2527983420
 Se        -9.0547707352        0.2428929287        0.9183095291
 Se        -6.3727585739       -0.6564961234        4.4183110244
 Se        -3.9345256159       -1.3489505631        8.2965396939
 Se        -6.5831096607       -3.7425425232        1.3880589432
 Se        -4.5790567569       -4.2748678330        4.8597447739
 Se        -4.6122352158       -7.7765784716        1.5328415565
 Se        -6.6422615816        3.9855444254        0.4576726607
 Se        -4.0719425671        2.6208413633        3.9143017682
 Se        -1.6333074547        2.0117603377        7.9251103778
 Se        -6.7116979553        0.9829107496       -3.1654333332
 Se        -4.4070652351       -0.2111921188        0.3949001207
 Se        -2.0531143540       -1.1153321630        4.2593833347
 Se         0.4059970368       -1.5661693902        8.0650617754
 Se        -4.4160589818       -3.1299991721       -2.8046742196
 Se        -2.2374259693       -4.0915805133        0.9472088345
 Se         0.1530491371       -4.8127373700        4.4858024345
 Se        -2.4165639397       -7.4206055722       -2.0539480734
 Se        -0.0669334169       -7.8791357602        1.3095597299
 Se        -4.5521277579        7.5948386417       -0.0126214252
 Se        -1.8467692658        6.3633060329        3.5400909615
 Se         0.4037055021        5.8261569572        7.5858826867
 Se        -4.4660361299        4.5539625806       -3.3489436591
 Se        -2.0809652695        3.7152401225        0.3431669019
 Se         0.4982243100        2.6969936611        3.7286894337
 Se         2.7717891020        1.9958618715        7.6261840239
 Se        -4.6131765487        2.0747483467       -6.9049064178
 Se        -2.2788806310        0.8535012506       -3.1261054344
 Se         0.0145667911       -0.1632299786        0.3854033408
 Se         2.3129798764       -1.3188939320        3.9990187213
 Se         4.8631599439       -1.8843054060        7.7353891227
 Se        -2.0701923515       -1.9664157616       -6.4603720403
 Se        -0.0447137055       -3.1599267450       -2.8087825620
 Se         2.2323144589       -4.2314458601        0.7809343143
 Se         4.8362350214       -4.9530960337        4.0967240566
 Se        -0.7551526929       -6.2848188399       -5.8413913432
 Se         1.9250065679       -7.4790197751       -2.6076248566
 Se         4.2593632487       -8.3791872107        0.7364010985
 Se         0.0356438197        7.3686130351       -0.4913061413
 Se         2.3809169195        6.5252129070        3.1424927428
 Se         0.0437306054        4.4288096995       -3.5940033295
 Se         2.5163697018        3.6274422567       -0.0568750576
 Se         4.7727021657        2.4661668245        3.1253251569
 Se         0.0455165821        1.9299499037       -6.9705121277
 Se         2.2758168279        0.7648375984       -3.6570506008
 Se         4.3766442611       -0.2853724862       -0.0178161044
 Se         6.9677009176       -1.1294546489        3.5582290406
 Se         2.2369842912       -2.2681778087       -6.6837723178
 Se         4.3737140456       -3.1974812442       -3.2156445513
 Se         6.4331313435       -4.1116869309        0.4129635368
 Se         4.8515509487        7.5524090724       -0.7459022559
 Se         4.8774530210        4.5489718015       -4.0122458857
 Se         7.0855824305        3.5934721443       -0.6428675809
 Se         4.7816994362        1.5264366023       -7.5555419628
 Se         6.9185547269        0.6112150928       -3.7073508395
 Se         9.1068697431       -0.0627068301       -0.0923213033
  C         6.9966702506       -6.9497957630       -2.8612716031
  H         7.7649322095       -7.1224747738       -3.6684216540
  O         5.8439964578       -6.4672326147       -3.1400314133
  O         7.2885987199       -7.2741462217       -1.6936820513
  C         3.3950855045       -6.2672819691       -6.9491570464
  H         4.3444066225       -6.8936096686       -7.0753272229
  O         3.0187963009       -5.7908428306       -5.7820375951
  O         2.6176882385       -6.1688630963       -7.9239591569
  C         6.3106270886       -2.9078655077       -7.4910058514
  H         7.1299137504       -3.7048862282       -7.4466889051
  O         6.0084983146       -2.3181631179       -6.3474957663
  O         5.9393159707       -2.4742114766       -8.6124347829
  C         8.9774127683       -3.3708896749       -3.4296313940
  H         9.9250180562       -3.8774829974       -3.1826003730
  O         8.5682344349       -3.4148540455       -4.6045902134
  O         8.2716866711       -2.6967173440       -2.5200934079
  C         9.7980410077       -4.6251877022        2.1809847476
  H        10.6408655401       -5.3318691344        2.3887999993
  O         9.7470890910       -4.1804754096        0.9926199486
  O         9.0285957577       -4.5681158182        3.1870431199
  C        -2.8217177170       -8.8884030453        5.3598599627
  H        -2.4154187803       -9.9024293192        5.4343946394
  O        -1.9847617856       -7.9306016777        5.0422936521
  O        -4.0904477332       -8.7273702081        5.4043849964
  C         2.9969125837       -8.6915855213        5.2874323637
  H         2.6967725338       -9.0398269484        6.2934215078
  O         1.9993916461       -8.3578348901        4.5594154484
  O         4.2233415275       -8.6006676250        4.9156536877
  C         2.8792856649       -5.7053294045        8.2323992281
  H         2.3955873073       -6.3773024893        8.9303283437
  O         2.2190475590       -4.8088397813        7.6162932138
  O         4.1498193620       -5.9034621324        8.1535527744
  C        -2.5347046154       -5.9173520768        8.5219641698
  H        -2.0052498086       -6.7390725628        9.0096019785
  O        -1.9213918040       -5.2582887754        7.5983211870
  O        -3.6522355463       -5.5083832239        8.8927188235
  C        -6.8630607241        2.3027116913        7.3891583095
  H        -7.2086193538        3.3071349018        7.3885257928
  O        -5.6213144721        2.1590736793        7.5336698927
  O        -7.6694916181        1.3702356104        7.1999445282
  C        -4.1170079645        6.2827825080        7.2281580649
  H        -5.2418933127        6.2896177269        7.3832000201
  O        -3.5266646096        5.2290358182        6.7738065531
  O        -3.5910273275        7.4672921706        7.3179983898
  C        -6.2567265948        7.1462137753        4.0781050308
  H        -7.2111390447        7.1649409639        4.6689854642
  O        -5.8089926051        6.0478991674        3.6278770379
  O        -5.6127541809        8.2206997448        3.8487459121
  C        -9.2741835047        2.9617361914        4.4604884471
  H        -9.7855372140        3.8838940690        4.7760086716
  O        -8.0587956567        3.0118690626        4.1192646848
  O       -10.0810809248        1.9792638248        4.3922109203
  C        -9.6032546307       -3.5282060325        4.2551521008
  H       -10.5971720209       -3.6001750875        4.7566807035
  O        -9.3832018698       -2.7227641400        3.2942775370
  O        -8.6786708921       -4.3017130917        4.7630156128
  C        -5.4081387618       -6.0792097294       -6.1561687045
  H        -6.0546960796       -6.5859836395       -6.8890942905
  O        -5.3110111960       -6.5040450170       -4.9652247901
  O        -4.7984024765       -5.0927302534       -6.6852768297
  C        -7.4874781261       -7.2705344487       -1.8348007139
  H        -7.8388434959       -7.7173330376       -2.7530342297
  O        -6.3887228810       -6.5549433600       -1.8842857964
  O        -8.0716513264       -7.4408705594       -0.7458061768
  C        -9.2562428334       -3.4270114671       -2.1219645136
  H        -9.5270787848       -4.0663584857       -2.9594189931
  O        -8.1697915942       -2.7553829625       -2.2726606101
  O        -9.8241732831       -3.4939496686       -1.0091948426
  C        -6.7206957661       -1.5101673961       -7.0045752777
  H        -7.7450574417       -1.9674181007       -7.1698505571
  O        -6.3197442536       -1.2781462639       -5.7990440662
  O        -6.0632988210       -1.2634969676       -8.0155028401
  C        -1.9628827983        5.6954844548       -7.4852938628
  H        -1.7770888886        6.7764005651       -7.4923242406
  O        -2.4611415759        5.1866999119       -6.4087386065
  O        -1.7563946728        5.0404239448       -8.5283313411
  C        -1.7168688889        9.0074822303       -3.7839166132
  H        -1.3493405476        9.2660238074       -4.8465614694
  O        -1.7700792086        7.7195052603       -3.5245879012
  O        -1.9637575771        9.8895239844       -2.9407947845
  C         2.5062190945        8.6538643678       -4.1272910728
  H         2.7131102182        9.0638249498       -5.0476060874
  O         2.0944555824        7.4532440825       -4.0306864886
  O         2.6627215243        9.4111464183       -3.1552117400
  C         1.7411302942        5.3672397234       -8.1968448598
  H         1.4358383610        6.4416008070       -8.3632925476
  O         2.2781389630        5.0765570333       -7.0407887981
  O         1.5312824604        4.4833240387       -9.0175313957
  C         9.4768439415        2.6096230983        3.9000102204
  H         9.6131090334        3.4671477718        4.5843902861
  O         8.5280087407        2.7173267370        3.0491974270
  O        10.1885120648        1.5401364759        4.0330737752
  C         6.6326459125        7.0382756706        3.3282154855
  H         7.5082674956        7.1289998248        4.0070788575
  O         6.4944254677        6.1604092396        2.4465769798
  O         5.7954587214        7.9029787124        3.5812681447
  C         4.7447755005        5.8524700302        6.9353700129
  H         5.7085862008        5.7040540943        7.4370666698
  O         4.3285422811        4.9885322858        6.0814832550
  O         4.1456914867        6.9224056621        7.1371489575
  C         7.5603309323        1.7452823701        7.1878507085
  H         8.1158840311        2.6116602203        7.6593692779
  O         6.7458341443        2.0301888097        6.2244356713
  O         7.8434836357        0.5821347424        7.5894630583
     227
 i =        2, time =        2.000, E =       -16.9820690336
 Cd        -8.6170011000        0.4783458040        3.4767938849
 Cd        -5.8708389267       -0.2575784915        7.1136365990
 Cd        -8.4089339536       -2.1552375162        0.3836252522
 Cd        -6.8896929765       -3.2938940686        3.9621412836