     227
 i =        0, time =        0.000, E =       -16.9243006937
 Cd        -8.6216924880        0.4810107428        3.4775887729
 Cd        -5.8723589632       -0.2566559957        7.1151373767
 Cd        -8.4076147924       -2.1531404527        0.3867588804
 Cd        -6.8957642261       -3.2896665849        3.9600318291
 Cd        -3.6930098048       -3.6992689615        7.3819491709
 Cd        -6.4429261463       -6.2347087238        0.4622469067
 Cd        -4.3123952394       -6.8285875372        3.9039095072
 Cd        -6.1141073353        3.8626235599        2.9066844924
 Cd        -3.6048790416        2.8797284733        6.5917986711
 Cd        -6.7531255596        1.1841266196       -0.3182182747
 Cd        -4.0437606329        0.0729837467        3.0511954168
 Cd        -1.7753257667       -0.3121054857        6.8316599018
 Cd        -6.3661028473       -1.4630135273       -3.4383357626
 Cd        -4.3602814436       -3.1214810613       -0.1759283953
 Cd        -2.2424276819       -3.6242998489        3.6335413818
 Cd         0.1757294635       -3.9625201566        7.0364714760
 Cd        -4.2692200317       -5.9860442556       -3.0005266361
 Cd        -2.2482225396       -6.7972628816        0.6786391664
 Cd         0.0669003827       -7.3030327295        3.8545421700
 Cd        -4.0792754193        7.4105475565        2.4175118797
 Cd        -1.6116442377        6.4880648240        6.2478272306
 Cd        -4.3308002626        4.8127262164       -0.6762739309
 Cd        -1.8326132452        3.6694977750        3.1598212265
 Cd         0.4939817277        3.1637060931        6.7202662426
 Cd        -4.5980154021        1.9988297698       -4.0880170010
 Cd        -2.1651194586        1.0165564496       -0.4536921834
 Cd         0.1376109507       -0.0659106884        3.1336818174
 Cd         2.6419074521       -0.6636939286        6.8958319365
 Cd        -4.1515129292       -0.5348426091       -6.9620217917
 Cd        -2.2012490343       -1.8491984656       -3.4894107829
 Cd         0.0359311218       -2.8494155653       -0.0264680683
 Cd         2.4407298775       -3.8224684908        3.5289587884
 Cd         4.5907434619       -4.2169180472        6.5928471603
 Cd        -2.6321953796       -4.5685798778       -6.0773989300
 Cd        -0.3638438279       -6.1221236347       -3.0620735359
 Cd         1.9882729153       -6.8506852632       -0.0376753302
 Cd         4.3604701588       -7.5063202656        3.0981086138
 Cd        -2.4313710890        8.2839908015       -1.2010761441
 Cd         0.1210964618        6.7915494583        2.0748938605
 Cd         2.2602783261        6.3879934074        5.9824457591
 Cd        -2.2743307721        5.5403016700       -4.1096429978
 Cd         0.1552258413        4.6164378819       -0.9814446932
 Cd         2.6173372932        3.7540356816        2.4616712460
 Cd         4.3934694910        2.5024270436        5.6448470259
 Cd        -2.3839877703        3.0961459608       -7.5397423510
 Cd        -0.1308699873        1.7716472388       -4.3458913396
 Cd         2.1522040622        0.8595996928       -0.9600505658
 Cd         4.3027041934       -0.4425155449        2.5248589789
 Cd         6.4943132815       -0.6514444341        6.0110723312
 Cd         0.4032906214       -0.5920449882       -7.0625722312
 Cd         2.1504065746       -1.8410095193       -3.9631978812
 Cd         4.1282053355       -2.9764966895       -0.5499119195
 Cd         6.9189885741       -3.8001688729        2.8840486736
 Cd         1.0693858855       -4.7693596381       -6.7909688629
 Cd         3.6529341800       -5.7620820022       -3.6150795142
 Cd         5.7341856059       -6.5625995016       -0.3323817960
 Cd         2.4532379782        8.1225833618       -1.1556872380
 Cd         4.4025673150        7.2904811152        1.7928276254
 Cd         2.3800547108        5.2453457502       -4.8107637235
 Cd         4.8184663347        4.7191125514       -1.4277792117
 Cd         6.7589411702        3.8390778732        2.0295448973
 Cd         2.6210634084        2.7844913241       -7.7035228004
 Cd         4.8495943395        1.7843685348       -4.5225056138
 Cd         6.7261500983        1.0662237140       -0.9642295531
 Cd         8.8881450478        0.4141445330        2.4369093904
 Cd         4.3615782352       -0.9213178924       -7.7328888960
 Cd         6.7438649008       -1.9767569930       -4.2031112584
 Cd         8.5272445020       -2.6218905711       -0.2551455218
 Se        -9.0557725106        0.2424574140        0.9180313808
 Se        -6.3745872764       -0.6570220647        4.4225742627
 Se        -3.9358548519       -1.3506397678        8.2925868769
 Se        -6.5830028390       -3.7408669090        1.3890860046
 Se        -4.5802302415       -4.2716541219        4.8585926421
 Se        -4.6110671623       -7.7792240778        1.5343213278
 Se        -6.6407812351        3.9866809498        0.4586064126
 Se        -4.0705866514        2.6241591830        3.9150270775
 Se        -1.6315747320        2.0143859544        7.9219454430
 Se        -6.7106235468        0.9827493806       -3.1628202938
 Se        -4.4077684895       -0.2106461950        0.3970531668
 Se        -2.0534879979       -1.1190641497        4.2604482105
 Se         0.4069246601       -1.5676855049        8.0617057342
 Se        -4.4126107232       -3.1307459794       -2.8028288282
 Se        -2.2371864822       -4.0884616040        0.9473336128
 Se         0.1541797359       -4.8148952714        4.4843326207
 Se        -2.4147106009       -7.4199706225       -2.0529393442
 Se        -0.0662571417       -7.8800811154        1.3078284855
 Se        -4.5519687636        7.5920037884       -0.0122560791
 Se        -1.8482840651        6.3647212661        3.5390459072
 Se         0.4006735392        5.8241498358        7.5878867146
 Se        -4.4655945585        4.5529209660       -3.3484418515
 Se        -2.0798083538        3.7153034916        0.3451575142
 Se         0.4973892782        2.6967113851        3.7286137790
 Se         2.7724753484        1.9958260876        7.6298945277
 Se        -4.6126224962        2.0736182894       -6.9031574659
 Se        -2.2770211290        0.8531533747       -3.1284312065
 Se         0.0138865169       -0.1636477002        0.3858468104
 Se         2.3115473387       -1.3198431962        4.0017354986
 Se         4.8624545925       -1.8855864388        7.7371297607
 Se        -2.0700877949       -1.9675257511       -6.4603372509
 Se        -0.0447057629       -3.1582708631       -2.8090856920
 Se         2.2343306950       -4.2299664240        0.7817840723
 Se         4.8342987615       -4.9516929708        4.0974643468
 Se        -0.7556003326       -6.2829108386       -5.8406699955
 Se         1.9243057511       -7.4784768035       -2.6074198353
 Se         4.2543989663       -8.3809591814        0.7363809319
 Se         0.0386925703        7.3677075300       -0.4939635450
 Se         2.3791568525        6.5289221229        3.1400383851
 Se         0.0465974103        4.4270318221       -3.5936563407
 Se         2.5167269427        3.6273521599       -0.0581806204
 Se         4.7705604635        2.4670139639        3.1233546104
 Se         0.0435933033        1.9323944164       -6.9695738842
 Se         2.2733127965        0.7623703678       -3.6584263160
 Se         4.3816175435       -0.2841549253       -0.0177063702
 Se         6.9670500347       -1.1290204494        3.5565582379
 Se         2.2410869402       -2.2702007814       -6.6798205275
 Se         4.3723294721       -3.1971869108       -3.2130677403
 Se         6.4331938555       -4.1098532443        0.4136420186
 Se         4.8503033307        7.5509093293       -0.7463548497
 Se         4.8776288797        4.5477652435       -4.0091414448
 Se         7.0830986217        3.5950723552       -0.6434567968
 Se         4.7810064642        1.5273410534       -7.5566303287
 Se         6.9188050062        0.6130038217       -3.7081238627
 Se         9.1066871843       -0.0609359671       -0.0919647969
  C         6.9955771113       -6.9586634775       -2.8583426301
  H         7.7780160969       -7.1271873265       -3.6573399650
  O         5.8389952916       -6.4652991204       -3.1445809228
  O         7.2920676004       -7.2683568805       -1.6893132711
  C         3.3939431960       -6.2668607509       -6.9513074648
  H         4.3245440932       -6.8689211647       -7.0591687882
  O         3.0202466073       -5.7860511295       -5.7843136273
  O         2.6220129789       -6.1746538788       -7.9242101403
  C         6.3116555909       -2.9071154185       -7.4921130606
  H         7.0978863851       -3.7212906458       -7.4285512081
  O         6.0096715894       -2.3219711192       -6.3505932827
  O         5.9403243477       -2.4750431756       -8.6116316973
  C         8.9837561036       -3.3697375837       -3.4349055328
  H         9.9249943929       -3.8864043165       -3.1840078659
  O         8.5659407989       -3.4209184445       -4.6048832464
  O         8.2714489672       -2.6971151254       -2.5207012617
  C         9.7902109758       -4.6282247391        2.1768529346
  H        10.6284324694       -5.3337138149        2.3552924638
  O         9.7484501532       -4.1824896055        0.9942458601
  O         9.0219926648       -4.5705851174        3.1873629795
  C        -2.8252708508       -8.8894178348        5.3653894160
  H        -2.3915771747       -9.8892286280        5.4446685031
  O        -1.9808601030       -7.9304545651        5.0436955975
  O        -4.0908415257       -8.7280019527        5.4030844137
  C         3.0047406823       -8.6887063298        5.2919739424
  H         2.6853413808       -9.0312323512        6.2714246943
  O         1.9985977812       -8.3553887881        4.5599054594
  O         4.2197147413       -8.6069092298        4.9235206312
  C         2.8732291572       -5.7090624943        8.2322507888
  H         2.4095730423       -6.3582442170        8.9295273658
  O         2.2236878889       -4.8031284854        7.6183804854
  O         4.1525405945       -5.8988692439        8.1468427445
  C        -2.5324052264       -5.9090323801        8.5168983878
  H        -2.0058427467       -6.7599986745        9.0204193621
  O        -1.9189018681       -5.2527647032        7.5983339134
  O        -3.6521974131       -5.4981014961        8.8936623702
  C        -6.8661340661        2.3082426882        7.3884767521
  H        -7.2433530482        3.2983326111        7.3747512577
  O        -5.6189307919        2.1553364867        7.5292857639
  O        -7.6694328727        1.3672322100        7.2032576312
  C        -4.1128935570        6.2776012356        7.2258109093
  H        -5.2184092536        6.2949225170        7.4003980339
  O        -3.5215502414        5.2331222329        6.7794929280
  O        -3.5956064510        7.4679880815        7.3184340370
  C        -6.2584500423        7.1467273309        4.0778865765
  H        -7.2018864753        7.1620259062        4.6862261037
  O        -5.8042352338        6.0508881806        3.6277903665
  O        -5.6141473350        8.2227071687        3.8530055117
  C        -9.2670155991        2.9624473135        4.4549609073
  H        -9.7760873251        3.8307467380        4.7753730710
  O        -8.0580447847        3.0137717908        4.1153681461
  O       -10.0869615960        1.9755230626        4.3964141791
  C        -9.5997958208       -3.5202239981        4.2555074891
  H       -10.6284324694       -3.6062117458        4.7363993397
  O        -9.3836198173       -2.7271085544        3.2939504316
  O        -8.6749593009       -4.3055307223        4.7674147240
  C        -5.4063829718       -6.0836320759       -6.1576393485
  H        -6.0390997038       -6.5934387315       -6.8768176703
  O        -5.3157147411       -6.5042627408       -4.9638375967
  O        -4.7997118332       -5.0931497246       -6.6842330004
  C        -7.4812021438       -7.2683192216       -1.8337008205
  H        -7.8430239833       -7.7214409635       -2.7403108931
  O        -6.3847231004       -6.5596142310       -1.8855223803
  O        -8.0870004405       -7.4369608581       -0.7449951352
  C        -9.2637717352       -3.4248031045       -2.1287629167
  H        -9.5435102925       -4.0726156799       -2.9624854104
  O        -8.1685743898       -2.7562864935       -2.2769679175
  O        -9.8293124780       -3.4993302663       -1.0042472880
  C        -6.7198117275       -1.5155721631       -7.0057360974
  H        -7.7266400310       -1.9701098143       -7.1795729881
  O        -6.3208037730       -1.2812141421       -5.7891801227
  O        -6.0546670581       -1.2647410752       -8.0219575549
  C        -1.9610306020        5.6962737072       -7.4797868569
  H        -1.8068881661        6.7616764611       -7.4798700689
  O        -2.4613788677        5.1953402046       -6.4147373301
  O        -1.7592038190        5.0404242691       -8.5376948407
  C        -1.7153677193        9.0065729983       -3.7807068554
  H        -1.3518565997        9.2891789052       -4.8285272378
  O        -1.7735635219        7.7204009534       -3.5311974415
  O        -1.9589811591        9.8892286280       -2.9296575010
  C         2.5176986766        8.6527359013       -4.1276241396
  H         2.7356319561        9.0838176512       -5.0545617483
  O         2.0941304229        7.4607563111       -4.0382054964
  O         2.6632020791        9.4136986823       -3.1567247192
  C         1.7405814703        5.3615037054       -8.2026998584
  H         1.4592813282        6.4433815072       -8.3446733349
  O         2.2712544771        5.0744229803       -7.0359036782
  O         1.5374971892        4.4786315137       -9.0204193621
  C         9.4791869119        2.6134878200        3.9079418032
  H         9.6264681644        3.4611325178        4.5867541287
  O         8.5294682966        2.7206869475        3.0468687327
  O        10.1884170796        1.5361363159        4.0354546634
  C         6.6320899766        7.0427804887        3.3240585285
  H         7.5183451153        7.1103565644        4.0025867163
  O         6.4921259472        6.1579139584        2.4473334656
  O         5.8014508194        7.8970951585        3.5804466065
  C         4.7468288793        5.8510846562        6.9391041765
  H         5.6837062732        5.7110173508        7.4566454645
  O         4.3315486404        4.9881730889        6.0840680113
  O         4.1390624477        6.9214380767        7.1338855679
  C         7.5642974957        1.7429307679        7.1823006621
  H         8.1116275708        2.6102062210        7.6466333920
  O         6.7423080014        2.0330978891        6.2208765696
  O         7.8434776238        0.5800715711        7.5931108165
     227
 i =        1, time =        1.000, E =       -16.9337826837
 Cd        -8.6193431628        0.4796490712        3.4771772836
 Cd        -5.8715560856       -0.2571752742        7.1143924713
 Cd        -8.4082328402       -2.1541514936        0.3852216967
 Cd        -6.8927295755       -3.2917976223        3.9610955137
 Cd        -3.6901790304       -3.7004105419        7.3823842867
 Cd        -6.4419877461       -6.2357639247        0.4642655636
 Cd        -4.3123479520       -6.8296292211        3.9052382539
 Cd        -6.1163979746        3.8609336765        2.9055864511
 Cd        -3.6066422379        2.8812392552        6.5904077431
 Cd        -6.7534357076        1.1872441080       -0.3192276241
 Cd        -4.0444370584        0.0755192089        3.0501852721
 Cd        -1.7741844744       -0.3125878706        6.8335935095
 Cd        -6.3661094656       -1.4624601193       -3.4401795872
 Cd        -4.3613661712       -3.1217772806       -0.1745479453
 Cd        -2.2426124546       -3.6215836997        3.6336124851
 Cd         0.1786976522       -3.9616002323        7.0369454197
 Cd        -4.2693944100       -5.9882233772       -2.9988692382
 Cd        -2.2487227582       -6.7966274267        0.6791537524
 Cd         0.0677829501       -7.3030135718        3.8542396030
 Cd        -4.0802965952        7.4119284823        2.4182923287
 Cd        -1.6108109082        6.4879411513        6.2509641169
 Cd        -4.3325449345        4.8128164903       -0.6769562149
 Cd        -1.8304026998        3.6696061771        3.1589356057
 Cd         0.4898067946        3.1633396357        6.7205413423
 Cd        -4.5996254596        2.0001220461       -4.0890257341
 Cd        -2.1629079304        1.0181373317       -0.4517582377
 Cd         0.1384310741       -0.0681630741        3.1344189588
 Cd         2.6424403054       -0.6635572087        6.8959127289
 Cd        -4.1541022062       -0.5351498806       -6.9611317986
 Cd        -2.2031872134       -1.8490946290       -3.4900381393
 Cd         0.0358053155       -2.8474993538       -0.0251010793
 Cd         2.4397155264       -3.8215747884        3.5304625414
 Cd         4.5938314825       -4.2152080930        6.5946952722
 Cd        -2.6317120364       -4.5699772826       -6.0785493526
 Cd        -0.3609621264       -6.1210680407       -3.0631413322
 Cd         1.9864105433       -6.8523579620       -0.0374596258
 Cd         4.3578666083       -7.5050306791        3.0974007290
 Cd        -2.4320384786        8.2867401697       -1.2003824850
 Cd         0.1211452333        6.7911548849        2.0747704803
 Cd         2.2581242319        6.3879411740        5.9826349590
 Cd        -2.2740299077        5.5405618669       -4.1121405351
 Cd         0.1544563718        4.6148736740       -0.9823408921
 Cd         2.6165209365        3.7533659239        2.4610480165
 Cd         4.3939385571        2.5015424965        5.6447157420
 Cd        -2.3864655868        3.0937301010       -7.5398984372
 Cd        -0.1312619006        1.7709365864       -4.3474200592
 Cd         2.1531808345        0.8600339347       -0.9632076357
 Cd         4.3034896539       -0.4402492148        2.5248260939
 Cd         6.4920380475       -0.6517628403        6.0105154351
 Cd         0.4042414643       -0.5927853345       -7.0621409351
 Cd         2.1513191905       -1.8411121677       -3.9633386330
 Cd         4.1299934399       -2.9780197540       -0.5482380820
 Cd         6.9198271049       -3.7969711422        2.8855476544
 Cd         1.0695817223       -4.7692016731       -6.7906796890
 Cd         3.6506446348       -5.7625234281       -3.6177195157
 Cd         5.7329646348       -6.5640190085       -0.3327839570
 Cd         2.4551030351        8.1223146950       -1.1566442304
 Cd         4.4053783191        7.2897990962        1.7948348255
 Cd         2.3804079652        5.2452241310       -4.8087144562
 Cd         4.8189839078        4.7184684085       -1.4284018144
 Cd         6.7582468664        3.8401608637        2.0311440063
 Cd         2.6217741345        2.7829335018       -7.7033834011
 Cd         4.8493324487        1.7846860584       -4.5231437435
 Cd         6.7277285085        1.0650012587       -0.9631203168
 Cd         8.8867478192        0.4155875075        2.4348064383
 Cd         4.3618177406       -0.9226548086       -7.7309222549
 Cd         6.7427824512       -1.9756288764       -4.2012666905
 Cd         8.5291397664       -2.6208091259       -0.2527979306
 Se        -9.0547730380        0.2428955639        0.9183083052
 Se        -6.3727591709       -0.6564956590        4.4183116213
 Se        -3.9345243305       -1.3489498069        8.2965435883
 Se        -6.5831095138       -3.7425432736        1.3880577618
 Se        -4.5790566762       -4.2748695959        4.8597463048
 Se        -4.6122357568       -7.7765816260        1.5328406845
 Se        -6.6422640939        3.9855444111        0.4576695942
 Se        -4.0719432243        2.6208411240        3.9143033171
 Se        -1.6333059666        2.0117620422        7.9251140672
 Se        -6.7117025057        0.9829134969       -3.1654318576
 Se        -4.4070661955       -0.2111926565        0.3948997016
 Se        -2.0531134182       -1.1153311657        4.2593843634
 Se         0.4059967363       -1.5661691449        8.0650639910
 Se        -4.4160597364       -3.1300011292       -2.8046757016
 Se        -2.2374246705       -4.0915808023        0.9472091447
 Se         0.1530482998       -4.8127367936        4.4858033397
 Se        -2.4165635642       -7.4206089182       -2.0539474074
 Se        -0.0669313688       -7.8791392656        1.3095601435
 Se        -4.5521316354        7.5948392212       -0.0126242057
 Se        -1.8467723104        6.3633067478        3.5400936999
 Se         0.4037060330        5.8261562149        7.5858875363
 Se        -4.4660394185        4.5539634696       -3.3489436916
 Se        -2.0809651108        3.7152397185        0.3431668568
 Se         0.4982253387        2.6969924723        3.7286911443
 Se         2.7717893007        1.9958621476        7.6261864681
 Se        -4.6131799780        2.0747487043       -6.9049067665
 Se        -2.2788814332        0.8535010257       -3.1261058486
 Se         0.0145677610       -0.1632302981        0.3854038435
 Se         2.3129801039       -1.3188918191        3.9990209363
 Se         4.8631609234       -1.8843050813        7.7353917831
 Se        -2.0701907577       -1.9664162342       -6.4603724895
 Se        -0.0447122843       -3.1599281777       -2.8087824456
 Se         2.2323138848       -4.2314466099        0.7809346554
 Se         4.8362353389       -4.9530977350        4.0967242580
 Se        -0.7551528393       -6.2848229220       -5.8413913127
 Se         1.9250066951       -7.4790222161       -2.6076261857
 Se         4.2593626304       -8.3791910536        0.7363993116
 Se         0.0356429533        7.3686140055       -0.4913070535
 Se         2.3809185210        6.5252125969        3.1424960822
 Se         0.0437316260        4.4288099039       -3.5940046152
 Se         2.5163700354        3.6274420645       -0.0568787258
 Se         4.7727039701        2.4661653713        3.1253243944
 Se         0.0455162411        1.9299524777       -6.9705144877
 Se         2.2758181312        0.7648388905       -3.6570508723
 Se         4.3766455138       -0.2853723951       -0.0178184696
 Se         6.9677014463       -1.1294551459        3.5582273663
 Se         2.2369866342       -2.2681804422       -6.6837731473
 Se         4.3737154198       -3.1974812759       -3.2156453428
 Se         6.4331310542       -4.1116875520        0.4129608409
 Se         4.8515555450        7.5524090985       -0.7459037930
 Se         4.8774538704        4.5489724024       -4.0122486930
 Se         7.0855849542        3.5934744816       -0.6428673125
 Se         4.7817037778        1.5264389296       -7.5555418935
 Se         6.9185583032        0.6112146303       -3.7073506434
 Se         9.1068718654       -0.0627060618       -0.0923231933
  C         6.9966702506       -6.9497957630       -2.8612716031
  H         7.7649322095       -7.1224747738       -3.6684216540
  O         5.8440019116       -6.4672350994       -3.1400299000
  O         7.2886106321       -7.2741516563       -1.6936926136
  C         3.3950855045       -6.2672819691       -6.9491570464
  H         4.3444066225       -6.8936096686       -7.0753272229
  O         3.0187963712       -5.7908444923       -5.7820459448
  O         2.6176910216       -6.1688654971       -7.9239610213
  C         6.3106270886       -2.9078655077       -7.4910058514
  H         7.1299137504       -3.7048862282       -7.4466889051
  O         6.0084968740       -2.3181644713       -6.3475030352
  O         5.9393186221       -2.4742141007       -8.6124361335
  C         8.9774127683       -3.3708896749       -3.4296313940
  H         9.9250180562       -3.8774829974       -3.1826003730
  O         8.5682380592       -3.4148569468       -4.6045908630
  O         8.2716883785       -2.6967193510       -2.5200995050
  C         9.7980410077       -4.6251877022        2.1809847476
  H        10.6408655401       -5.3318691344        2.3887999993
  O         9.7470947916       -4.1804790261        0.9926236289
  O         9.0286049821       -4.5681191313        3.1870445313
  C        -2.8217177170       -8.8884030453        5.3598599627
  H        -2.4154187803       -9.9024293192        5.4343946394
  O        -1.9847642330       -7.9306022046        5.0422945986
  O        -4.0904473905       -8.7273723404        5.4043867326
  C         2.9969125837       -8.6915855213        5.2874323637
  H         2.6967725338       -9.0398269484        6.2934215078
  O         1.9993979137       -8.3578378296        4.5594173955
  O         4.2233398389       -8.6006797456        4.9156735228
  C         2.8792856649       -5.7053294045        8.2323992281
  H         2.3955873073       -6.3773024893        8.9303283437
  O         2.2190549262       -4.8088430948        7.6162954056
  O         4.1498181386       -5.9034663508        8.1535566287
  C        -2.5347046154       -5.9173520768        8.5219641698
  H        -2.0052498086       -6.7390725628        9.0096019785
  O        -1.9213896046       -5.2582923421        7.5983220525
  O        -3.6522354049       -5.5083871124        8.8927220388
  C        -6.8630607241        2.3027116913        7.3891583095
  H        -7.2086193538        3.3071349018        7.3885257928
  O        -5.6213192159        2.1590740751        7.5336724737
  O        -7.6694939398        1.3702379913        7.1999449086
  C        -4.1170079645        6.2827825080        7.2281580649
  H        -5.2418933127        6.2896177269        7.3832000201
  O        -3.5266688891        5.2290377014        6.7738082419
  O        -3.5910290982        7.4672929469        7.3179992767
  C        -6.2567265948        7.1462137753        4.0781050308
  H        -7.2111390447        7.1649409639        4.6689854642
  O        -5.8089927610        6.0479044143        3.6278797552
  O        -5.6127611879        8.2207033318        3.8487525036
  C        -9.2741835047        2.9617361914        4.4604884471
  H        -9.7855372140        3.8838940690        4.7760086716
  O        -8.0587976329        3.0118682084        4.1192659474
  O       -10.0810860799        1.9792692405        4.3922142045
  C        -9.6032546307       -3.5282060325        4.2551521008
  H       -10.5971720209       -3.6001750875        4.7566807035
  O        -9.3832032866       -2.7227636846        3.2942779764
  O        -8.6786826725       -4.3017197964        4.7630209683
  C        -5.4081387618       -6.0792097294       -6.1561687045
  H        -6.0546960796       -6.5859836395       -6.8890942905
  O        -5.3110146858       -6.5040467268       -4.9652319730
  O        -4.7984088155       -5.0927317070       -6.6852783543
  C        -7.4874781261       -7.2705344487       -1.8348007139
  H        -7.8388434959       -7.7173330376       -2.7530342297
  O        -6.3887246152       -6.5549443393       -1.8842891013
  O        -8.0716543804       -7.4408728056       -0.7458084894
  C        -9.2562428334       -3.4270114671       -2.1219645136
  H        -9.5270787848       -4.0663584857       -2.9594189931
  O        -8.1697928009       -2.7553836475       -2.2726596042
  O        -9.8241752516       -3.4939515987       -1.0091969036
  C        -6.7206957661       -1.5101673961       -7.0045752777
  H        -7.7450574417       -1.9674181007       -7.1698505571
  O        -6.3197444578       -1.2781472122       -5.7990498195
  O        -6.0633051602       -1.2634996246       -8.0155062750
  C        -1.9628827983        5.6954844548       -7.4852938628
  H        -1.7770888886        6.7764005651       -7.4923242406
  O        -2.4611418376        5.1867028483       -6.4087426692
  O        -1.7563922178        5.0404316942       -8.5283351684
  C        -1.7168688889        9.0074822303       -3.7839166132
  H        -1.3493405476        9.2660238074       -4.8465614694
  O        -1.7700779977        7.7195116605       -3.5245887772
  O        -1.9637568942        9.8895261514       -2.9407972445
  C         2.5062190945        8.6538643678       -4.1272910728
  H         2.7131102182        9.0638249498       -5.0476060874
  O         2.0944553528        7.4532489642       -4.0306844744
  O         2.6627215858        9.4111485246       -3.1552152423
  C         1.7411302942        5.3672397234       -8.1968448598
  H         1.4358383610        6.4416008070       -8.3632925476
  O         2.2781379740        5.0765592967       -7.0407995361
  O         1.5312812491        4.4833271563       -9.0175337287
  C         9.4768439415        2.6096230983        3.9000102204
  H         9.6131090334        3.4671477718        4.5843902861
  O         8.5280131184        2.7173268047        3.0492008503
  O        10.1885148631        1.5401390052        4.0330773673
  C         6.6326459125        7.0382756706        3.3282154855
  H         7.5082674956        7.1289998248        4.0070788575
  O         6.4944266897        6.1604124206        2.4465784362
  O         5.7954622488        7.9029801040        3.5812721386
  C         4.7447755005        5.8524700302        6.9353700129
  H         5.7085862008        5.7040540943        7.4370666698
  O         4.3285436601        4.9885329854        6.0814834066
  O         4.1456993388        6.9224077521        7.1371536196
  C         7.5603309323        1.7452823701        7.1878507085
  H         8.1158840311        2.6116602203        7.6593692779
  O         6.7458364264        2.0301882723        6.2244365467
  O         7.8434853983        0.5821364905        7.5894650304
     227
 i =        2, time =        2.000, E =       -16.9492866855
 Cd        -8.6170002926        0.4783446567        3.4767968066
 Cd        -5.8708454451       -0.2575760144        7.1136336719
 Cd        -8.4089343948       -2.1552415934        0.3836224091
 Cd        -6.8896909733       -3.2938907676        3.9621416822