#     Step Nr.          Time[fs]        Kin.[a.u.]          Temp[K]            Pot.[a.u.]        Cons Qty[a.u.]        UsedTime[s]
         0            0.000000         0.320640054       300.000000000         0.783460497         1.104100551         0.000000000
         1            1.000000         0.541982781       507.094583489         0.559455871         1.101853698         0.614334000
         2            2.000000         1.170584889      1095.232685245        -0.076618668         1.095984730         0.042559000
         3            3.000000         2.117021757      1980.746073686        -1.031678270         1.088557123         0.033219000
         4            4.000000         3.268348221      3057.960026245        -2.189005492         1.081698066         0.034366000
         5            5.000000         4.504838141      4214.855342038        -3.435087154         1.076530411         0.035715000
         6            6.000000         5.745770156      5375.906808611        -4.680066295         1.072951283         0.033460001
         7            7.000000         6.918032384      6472.708859954        -5.859612047         1.071195442         0.034756999
         8            8.000000         7.982409922      7468.570911035        -6.932643341         1.069945570         0.036698001
         9            9.000000         8.916830249      8342.841280402        -7.873113678         1.070276899         0.030999000
        10           10.000000         9.710728849      9085.635505968        -8.674284434         1.071372082         0.037163000
        11           11.000000        10.376399308      9708.455816431        -9.346274872         1.073114223         0.034813000
        12           12.000000        10.936730385     10232.717589824        -9.912568063         1.075768304         0.031890000
        13           13.000000        11.415838130     10680.984492087       -10.405172041         1.077286188         0.027275000
        14           14.000000        11.849922666     11087.126392623       -10.848985395         1.078544218         0.029683000
        15           15.000000        12.256639710     11467.662485353       -11.259228260         1.078737204         0.297058000
        16           16.000000        12.636138508     11822.732409722       -11.643201063         1.080115402         0.031314000
        17           17.000000        12.990651504     12154.424902622       -12.012733552         1.081157779         0.030489000
        18           18.000000        13.349803034     12490.457340734       -12.384684296         1.082641070         0.032404999
        19           19.000000        13.730826577     12846.953860029       -12.780058534         1.083673019         0.031042000
        20           20.000000        14.150687159     13239.787422664       -13.208636480         1.084639499         0.033929000
        21           21.000000        14.605846913     13665.647900340       -13.671627692         1.083821105         0.050880000
        22           22.000000        15.079127136     14108.462405629       -14.158277536         1.082855402         0.037821000
        23           23.000000        15.563167456     14561.344366764       -14.653960225         1.081909818         0.031990000
        24           24.000000        16.046617132     15013.673703170       -15.147305302         1.081644254         0.035310999
        25           25.000000        16.525940163     15462.142033123       -15.635500976         1.082256417         0.033161000
        26           26.000000        16.989275210     15895.651548290       -16.120746540         1.082774920         0.290066000
        27           27.000000        17.465829071     16341.528964083       -16.604810393         1.082182963         0.034941000
        28           28.000000        17.932889125     16778.523702052       -17.081036335         1.082300340         0.032368000
        29           29.000000        18.387322951     17203.704980085       -17.540632042         1.081763809         0.029976000
        30           30.000000        18.805671015     17595.123387658       -17.971184563         1.082218237         0.035854001
        31           31.000000        19.181330399     17946.601046340       -18.367025067         1.081796382         0.031458000
        32           32.000000        19.521029691     18264.433414469       -18.727722968         1.082880815         0.035845000
        33           33.000000        19.854133476     18576.094837714       -19.060347022         1.083296576         0.033419999
        34           34.000000        20.141773162     18845.218751031       -19.366873512         1.083069232         0.030457000
        35           35.000000        20.407546227     19093.883628269       -19.643773980         1.082324869         0.036013000
        36           36.000000        20.632848571     19304.682941432       -19.884515235         1.082548157         0.303081000
        37           37.000000        20.831684423     19490.719448835       -20.093322142         1.082937375         0.030776001
        38           38.000000        21.005011922     19652.889611813       -20.277065869         1.084016846         0.029968000
        39           39.000000        21.166804451     19804.267326453       -20.447275082         1.085281172         0.032308999
        40           40.000000        21.316705132     19944.518689254       -20.616438643         1.085696875         0.033093000
        41           41.000000        21.474444836     20092.104464902       -20.788530937         1.085584598         0.038370000
        42           42.000000        21.627201978     20235.028414030       -20.957763384         1.085309300         0.032046000
        43           43.000000        21.757663886     20357.092304333       -21.113410138         1.084587747         0.030866000
        44           44.000000        21.877905980     20469.594245252       -21.248942060         1.084623970         0.033210999
        45           45.000000        21.979816053     20564.944222499       -21.365972253         1.085306601         0.281265001
        46           46.000000        22.066020518     20645.599584413       -21.471104142         1.084665913         0.032446000
        47           47.000000        22.148206106     20722.494769574       -21.567506026         1.084427559         0.043799000
        48           48.000000        22.215657948     20785.604641252       -21.654106838         1.084921306         0.046717000
        49           49.000000        22.263520147     20830.385883007       -21.728021938         1.084705203         0.048053000
        50           50.000000        22.297031395     20861.739964256       -21.784326510         1.084370165         0.050067000
        51           51.000000        22.310247241     20874.105088199       -21.821614274         1.085570264         0.060876000
        52           52.000000        22.320489346     20883.687894325       -21.851223689         1.086926156         0.519653000
        53           53.000000        22.335060905     20897.321461463       -21.888286844         1.087401844         0.047039000
        54           54.000000        22.372664213     20932.504190795       -21.941721839         1.087133706         0.055496000
        55           55.000000        22.417759850     20974.696957964       -22.010431834         1.085740096         0.057512000
        56           56.000000        22.470638949     21024.172154952       -22.082154443         1.084340295         0.073845000
        57           57.000000        22.515177092     21065.843314801       -22.147267542         1.084694958         0.060323000
        58           58.000000        22.560597776     21108.340205376       -22.208402162         1.084308276         0.037629999
        59           59.000000        22.593277940     21138.916700341       -22.269041292         1.083705352         0.489429001
        60           60.000000        22.642064489     21184.562790539       -22.333721708         1.082803590         0.035459000
        61           61.000000        22.688757109     21228.249740834       -22.398141051         1.083035629         0.073683000
        62           62.000000        22.731340571     21268.092045407       -22.453182801         1.083846505         0.045857999
        63           63.000000        22.758569877     21293.568561854       -22.492957580         1.083736812         0.053149001
        64           64.000000        22.760793273     21295.648834522       -22.517039939         1.084544343         0.045980000
        65           65.000000        22.754229707     21289.507775298       -22.534389490         1.084729131         0.455982000
        66           66.000000        22.758391096     21293.401289794       -22.552710842         1.085755919         0.044549000
        67           67.000000        22.770935082     21305.137801671       -22.581296614         1.085631660         0.044078000
        68           68.000000        22.780587577     21314.168951458       -22.617063187         1.086750112         0.037161000
        69           69.000000        22.793326329     21326.087692112       -22.654616757         1.085926229         0.043056000
        70           70.000000        22.804650506     21336.682916141       -22.685942465         1.085211639         0.473127999
        71           71.000000        22.812255201     21343.798085610       -22.710139568         1.085252244         0.046691000
        72           72.000000        22.813530155     21344.990969562       -22.731332133         1.085515126         0.035120999
        73           73.000000        22.814345983     21345.754280951       -22.754578748         1.085080723         0.043925000
        74           74.000000        22.818178398     21349.339998102       -22.777936212         1.085421080         0.034655000
        75           75.000000        22.824454049     21355.211676765       -22.796780979         1.085309734         0.468932000
        76           76.000000        22.809826584     21341.525802089       -22.804764082         1.084711057         0.050144000
        77           77.000000        22.785176171     21318.462170917       -22.799618274         1.084543580         0.051882000
        78           78.000000        22.754786226     21290.028470204       -22.785536025         1.085639394         0.047815001
        79           79.000000        22.728529037     21265.461493445       -22.775569700         1.085563888         0.048425999
        80           80.000000        22.724969801     21262.131370104       -22.777299646         1.086785877         0.393236000
        81           81.000000        22.713830697     21251.709305984       -22.794056785         1.085899325         0.077043000
        82           82.000000        22.716020759     21253.758390685       -22.815804064         1.085855233         0.038209001
        83           83.000000        22.718847353     21256.403032912       -22.835369954         1.084839629         0.049183000
        84           84.000000        22.712050992     21250.044163834       -22.846163325         1.085163852         0.050051000
        85           85.000000        22.699581442     21238.377295950       -22.852745828         1.086263696         0.373432000
        86           86.000000        22.691075238     21230.418647909       -22.862486255         1.086166320         0.041769000
        87           87.000000        22.689245221     21228.706432566       -22.875369324         1.086591081         0.036065000
        88           88.000000        22.686122551     21225.784772471       -22.888347567         1.085149437         0.043955999
        89           89.000000        22.670602110     21211.263404455       -22.890655261         1.084919360         0.041188001
        90           90.000000        22.640875905     21183.450717040       -22.878857745         1.084645292         0.376045000
        91           91.000000        22.609910782     21154.478863359       -22.855496022         1.084941409         0.047745000
        92           92.000000        22.575045723     21121.858117244       -22.831438935         1.084274511         0.039592001
        93           93.000000        22.537997784     21087.195006152       -22.810146730         1.084514672         0.048009000
        94           94.000000        22.502107677     21053.615196607       -22.794524182         1.084420298         0.049365000
        95           95.000000        22.478061640     21031.117037174       -22.780689511         1.084275549         0.421002000
        96           96.000000        22.441841505     20997.228443339       -22.762679815         1.084562533         0.052790000
        97           97.000000        22.416497460     20973.515829849       -22.741723954         1.085460274         0.041737000
        98           98.000000        22.383650038     20942.782842963       -22.727704350         1.084876295         0.036940000
        99           99.000000        22.366673906     20926.899488905       -22.724408292         1.084863786         0.049180999
       100          100.000000        22.355690629     20916.623220598       -22.732281336         1.085487970         0.046042000
