 DBCSR| Multiplication driver                                               BLAS
 DBCSR| Multrec recursion limit                                              512
 DBCSR| Multiplication stack size                                           1000
 DBCSR| Maximum elements for images                                    UNLIMITED
 DBCSR| Multiplicative factor virtual images                                   1
 DBCSR| Multiplication size stacks                                             3


  **** **** ******  **  PROGRAM STARTED AT               2020-04-23 18:02:40.418
 ***** ** ***  *** **   PROGRAM STARTED ON                     bass-macbook.home
 **    ****   ******    PROGRAM STARTED BY                              bvanbeek
 ***** **    ** ** **   PROGRAM PROCESS ID                                 96213
  **** **  *******  **  PROGRAM STARTED IN /Users/bvanbeek/Documents/GitHub/auto
                                           -FOX/FOX/examples/private/MM_MD_workd
                                           ir/md.026

 CP2K| version string:                                          CP2K version 6.1
 CP2K| source code revision number:                                    svn:18464
 CP2K| cp2kflags: omp no_statm_access accelerate                                
 CP2K| is freely available from                            https://www.cp2k.org/
 CP2K| Program compiled at                         Fri Apr 19 11:24:34 CEST 2019
 CP2K| Program compiled on                                         192.168.1.124
 CP2K| Program compiled for                       Darwin-IntelMacintosh-gfortran
 CP2K| Data directory path            /Users/bvanbeek/Documents/GitHub/cp2k/data
 CP2K| Input file name                                                 md.026.in

 GLOBAL| Force Environment number                                              1
 GLOBAL| Basis set file name                                           BASIS_SET
 GLOBAL| Potential file name                                           POTENTIAL
 GLOBAL| MM Potential file name                                     MM_POTENTIAL
 GLOBAL| Coordinate file name                                      __STD_INPUT__
 GLOBAL| Method name                                                        CP2K
 GLOBAL| Project name                                                       cp2k
 GLOBAL| Preferred FFT library                                             FFTW3
 GLOBAL| Preferred diagonalization lib.                                       SL
 GLOBAL| Run type                                                             MD
 GLOBAL| All-to-all communication in single precision                          F
 GLOBAL| FFTs using library dependent lengths                                  F
 GLOBAL| Global print level                                                  LOW
 GLOBAL| Total number of message passing processes                             1
 GLOBAL| Number of threads for this process                                    4
 GLOBAL| This output is from process                                           0
 GLOBAL| CPU model name : UNKNOWN

 MEMORY| system memory details [Kb]
 MEMORY|                        rank 0           min           max       average
 MEMORY| MemTotal                    0             0             0             0
 MEMORY| MemFree                     0             0             0             0
 MEMORY| Buffers                     0             0             0             0
 MEMORY| Cached                      0             0             0             0
 MEMORY| Slab                        0             0             0             0
 MEMORY| SReclaimable                0             0             0             0
 MEMORY| MemLikelyFree               0             0             0             0

 WARNING : FFT library FFTW3 is not available  Trying FFTSG as a default


                      ************* ******** ***********   
                     ************* **********************  
                     ****     **** ****      ***********   
                     ******** ****  *******     ****       
                     *******  ****   *******   ****        
                     ****     ****       ****  ****        
                     ****     **** **********  ****        
                      ****     **** ********    ****       
                     FRONTIERS IN SIMULATION TECHNOLOGY    
                                                           
                        C.J. Mundy, S. Balasubramanian,    
                     Ken Bagchi, J. Hutter, Ari Seitsonen  
                      IFW Kuo, T. Laino, J. VandeVondele   
                                 Version 1.0               

                                                           

 EWALD|                                                                 not used
     CHM BOND            1 C_1 O_1    525.00000000000000        1.2600000000000000     
     CHM BOND            2 C_1 H_1    238.00000000000000        1.1422000000000001     
     CHM BEND            1 O_1 C_1 O_1    100.00000000000000        128.00000000000000     
     CHM UB            1 O_1 C_1 O_1    70.000000000000000        2.2587000000000002     
     CHM BEND            2 O_1 C_1 H_1    45.000000000000000        116.00000000000000     
     CHM IMPROPERS            1 C_1 O_1 O_1 H_1    67.000000000000000        0.0000000000000000     
     CHM NONBOND            1 H_1   -4.5999999999999999E-002  0.90000000000000002     
     CHM NONBOND            2 C_1   -7.0000000000000007E-002   2.0000000000000000     
     CHM NONBOND            3 O_1  -0.12000000000000000        1.7000000000000000     
     Found UB O_1 C_1 O_1

 FORCEFIELD| WARNING: A non Critical ForceField parameter is missing! CP2K GOES!
 FORCEFIELD| Non critical parameters are:Urey-Bradley,Torsions,Impropers, Opbends and 1-4
 FORCEFIELD| All missing parameters will not contribute to the potential energy!

 FORCEFIELD| Missing Urey-Bradley      ( O_1, C_1, H_1)                         
 FORCEFIELD| Missing Improper          ( C_1, H_1, O_1, O_1)                    
 FORCEFIELD| Missing Out of plane bend ( H_1, O_1, O_1, C_1)                    
 Charge Checking ::C_1CD                                                                              
 Charge Checking ::CDCD                                                                              

 *** WARNING in force_fields_all.F:3322 :: Multiple Charge declarations: ( ***
 *** CD ) overwriting!                                                     ***

 Charge Checking ::O_1CD                                                                              
 Charge Checking ::SECD                                                                              
 Charge Checking ::C_1SE                                                                              
 Charge Checking ::CDSE                                                                              
 Charge Checking ::O_1SE                                                                              
 Charge Checking ::SESE                                                                              

 *** WARNING in force_fields_all.F:3322 :: Multiple Charge declarations: ( ***
 *** SE ) overwriting!                                                     ***

 Charge Checking ::C_1C_1                                                                             

 *** WARNING in force_fields_all.F:3322 :: Multiple Charge declarations: ( ***
 *** C_1 ) overwriting!                                                    ***

 Charge Checking ::CDC_1                                                                             
 Charge Checking ::O_1C_1                                                                             
 Charge Checking ::SEC_1                                                                             
 Charge Checking ::C_1H_1                                                                             
 Charge Checking ::CDH_1                                                                             
 Charge Checking ::O_1H_1                                                                             
 Charge Checking ::SEH_1                                                                             
 Charge Checking ::C_1O_1                                                                             
 Charge Checking ::CDO_1                                                                             
 Charge Checking ::O_1O_1                                                                             

 *** WARNING in force_fields_all.F:3322 :: Multiple Charge declarations: ( ***
 *** O_1 ) overwriting!                                                    ***

 Charge Checking ::SEO_1                                                                             
 CHARGE_INFO| Total Charge of the Classical System:                    12.232810
 Matching kinds for MM_RADIUS :: 'CD' with 'C_1'
 Matching kinds for MM_RADIUS :: 'CD' with 'CD'
 Matching kinds for MM_RADIUS :: 'CD' with 'H_1'
 Matching kinds for MM_RADIUS :: 'CD' with 'O_1'
 Matching kinds for MM_RADIUS :: 'CD' with 'SE'
 Matching kinds for MM_RADIUS :: 'SE' with 'C_1'
 Matching kinds for MM_RADIUS :: 'SE' with 'CD'
 Matching kinds for MM_RADIUS :: 'SE' with 'H_1'
 Matching kinds for MM_RADIUS :: 'SE' with 'O_1'
 Matching kinds for MM_RADIUS :: 'SE' with 'SE'
 Matching kinds for MM_RADIUS :: 'C_1' with 'C_1'
 Matching kinds for MM_RADIUS :: 'C_1' with 'CD'
 Matching kinds for MM_RADIUS :: 'C_1' with 'H_1'
 Matching kinds for MM_RADIUS :: 'C_1' with 'O_1'
 Matching kinds for MM_RADIUS :: 'C_1' with 'SE'
 Matching kinds for MM_RADIUS :: 'H_1' with 'C_1'
 Matching kinds for MM_RADIUS :: 'H_1' with 'CD'
 Matching kinds for MM_RADIUS :: 'H_1' with 'H_1'
 Matching kinds for MM_RADIUS :: 'H_1' with 'O_1'
 Matching kinds for MM_RADIUS :: 'H_1' with 'SE'
 Matching kinds for MM_RADIUS :: 'O_1' with 'C_1'
 Matching kinds for MM_RADIUS :: 'O_1' with 'CD'
 Matching kinds for MM_RADIUS :: 'O_1' with 'H_1'
 Matching kinds for MM_RADIUS :: 'O_1' with 'O_1'
 Matching kinds for MM_RADIUS :: 'O_1' with 'SE'
 Total number of particles with a shell ::            0

 FORCEFIELD| WARNING: A non Critical ForceField parameter is missing! CP2K GOES!
 FORCEFIELD| Non critical parameters are:Urey-Bradley,Torsions,Impropers, Opbends and 1-4
 FORCEFIELD| All missing parameters will not contribute to the potential energy!

 FORCEFIELD| Missing Spline_Bond_Env   (  CD,  CD)                              
                                                                                
                                                                                
                                                                                
                                                                                
                                                                                
                                                                                
                                                                                
                                                                                

 SPLINE_INFO| Generating 15 splines for NONBONDED14 interactions 
              Due to 5 different atomic kinds
  ...1  ...2  ...3  ...4  ...5  ...6  ...7  ...8  ...9  ...10  ...11
  ...12  ...13  ...14  ...15
 SPLINE_INFO| Number of unique splines computed:            7
 SPLINE_INFO| Done
     TESTING CDCD with CDCD
     FOUND CD CD
     TESTING CDCD with SESE
     TESTING CDCD with CDSE
     TESTING CDCD with CDO_1
     TESTING CDCD with SEO_1
     TESTING CDSE with CDCD
     TESTING CDSE with SESE
     TESTING CDSE with CDSE
     FOUND CD SE
     TESTING CDSE with CDO_1
     TESTING CDSE with SEO_1
     TESTING CDC_1 with CDCD
     TESTING CDC_1 with SESE
     TESTING CDC_1 with CDSE
     TESTING CDC_1 with CDO_1
     TESTING CDC_1 with SEO_1
     TESTING CDH_1 with CDCD
     TESTING CDH_1 with SESE
     TESTING CDH_1 with CDSE
     TESTING CDH_1 with CDO_1
     TESTING CDH_1 with SEO_1
     TESTING CDO_1 with CDCD
     TESTING CDO_1 with SESE
     TESTING CDO_1 with CDSE
     TESTING CDO_1 with CDO_1
     FOUND CD O_1
     TESTING CDO_1 with SEO_1
     TESTING SESE with CDCD
     TESTING SESE with SESE
     FOUND SE SE
     TESTING SESE with CDSE
     TESTING SESE with CDO_1
     TESTING SESE with SEO_1
     TESTING SEC_1 with CDCD
     TESTING SEC_1 with SESE
     TESTING SEC_1 with CDSE
     TESTING SEC_1 with CDO_1
     TESTING SEC_1 with SEO_1
     TESTING SEH_1 with CDCD
     TESTING SEH_1 with SESE
     TESTING SEH_1 with CDSE
     TESTING SEH_1 with CDO_1
     TESTING SEH_1 with SEO_1
     TESTING SEO_1 with CDCD
     TESTING SEO_1 with SESE
     TESTING SEO_1 with CDSE
     TESTING SEO_1 with CDO_1
     TESTING SEO_1 with SEO_1
     FOUND SE O_1
     TESTING C_1C_1 with CDCD
     TESTING C_1C_1 with SESE
     TESTING C_1C_1 with CDSE
     TESTING C_1C_1 with CDO_1
     TESTING C_1C_1 with SEO_1
     TESTING C_1H_1 with CDCD
     TESTING C_1H_1 with SESE
     TESTING C_1H_1 with CDSE
     TESTING C_1H_1 with CDO_1
     TESTING C_1H_1 with SEO_1
     TESTING C_1O_1 with CDCD
     TESTING C_1O_1 with SESE
     TESTING C_1O_1 with CDSE
     TESTING C_1O_1 with CDO_1
     TESTING C_1O_1 with SEO_1
     TESTING H_1H_1 with CDCD
     TESTING H_1H_1 with SESE
     TESTING H_1H_1 with CDSE
     TESTING H_1H_1 with CDO_1
     TESTING H_1H_1 with SEO_1
     TESTING H_1O_1 with CDCD
     TESTING H_1O_1 with SESE
     TESTING H_1O_1 with CDSE
     TESTING H_1O_1 with CDO_1
     TESTING H_1O_1 with SEO_1
     TESTING O_1O_1 with CDCD
     TESTING O_1O_1 with SESE
     TESTING O_1O_1 with CDSE
     TESTING O_1O_1 with CDO_1
     TESTING O_1O_1 with SEO_1

 FORCEFIELD| WARNING: A non Critical ForceField parameter is missing! CP2K GOES!
 FORCEFIELD| Non critical parameters are:Urey-Bradley,Torsions,Impropers, Opbends and 1-4
 FORCEFIELD| All missing parameters will not contribute to the potential energy!

 FORCEFIELD| Missing Spline_Non_Bond_En(  CD, C_1)                              
                                                                                
                                                                                
                                                                                

 FORCEFIELD| WARNING: Ignoring missing critical FF parameters! CP2K GOES!
 FORCEFIELD| Critical parameters are: Bonds, Bends and Charges
 FORCEFIELD| All missing parameters will not contribute to the potential energy!

 SPLINE_INFO| Generating 15 splines for NONBONDED interactions 
              Due to 5 different atomic kinds
  ...1  ...2  ...3  ...4  ...5  ...6  ...7  ...8  ...9  ...10  ...11
  ...12  ...13  ...14  ...15
 SPLINE_INFO| Number of unique splines computed:            12
 SPLINE_INFO| Done
       atom            1  Cd charge =    1.5000000000000000     
     Mol Kind MOL1 charge =    1.5000000000000000     
       atom            1  Se charge =   -1.5000000000000000     
     Mol Kind MOL2 charge =   -1.5000000000000000     
       atom            1  C_1 charge =   0.45240000000000002     
       atom            2  H_1 charge =    0.0000000000000000     
       atom            3  O_1 charge =  -0.36595365384615386     
       atom            4  O_1 charge =  -0.36595365384615386     
     Mol Kind MOL3 charge =  -0.27950730769230769     
       atom            1  Cd charge =    1.5000000000000000     
       atom            2  Cd charge =    1.5000000000000000     
       atom            3  Cd charge =    1.5000000000000000     
       atom            4  Cd charge =    1.5000000000000000     
       atom            5  Cd charge =    1.5000000000000000     
       atom            6  Cd charge =    1.5000000000000000     
       atom            7  Cd charge =    1.5000000000000000     
       atom            8  Cd charge =    1.5000000000000000     
       atom            9  Cd charge =    1.5000000000000000     
       atom           10  Cd charge =    1.5000000000000000     
       atom           11  Cd charge =    1.5000000000000000     
       atom           12  Cd charge =    1.5000000000000000     
       atom           13  Cd charge =    1.5000000000000000     
       atom           14  Cd charge =    1.5000000000000000     
       atom           15  Cd charge =    1.5000000000000000     
       atom           16  Cd charge =    1.5000000000000000     
       atom           17  Cd charge =    1.5000000000000000     
       atom           18  Cd charge =    1.5000000000000000     
       atom           19  Cd charge =    1.5000000000000000     
       atom           20  Cd charge =    1.5000000000000000     
       atom           21  Cd charge =    1.5000000000000000     
       atom           22  Cd charge =    1.5000000000000000     
       atom           23  Cd charge =    1.5000000000000000     
       atom           24  Cd charge =    1.5000000000000000     
       atom           25  Cd charge =    1.5000000000000000     
       atom           26  Cd charge =    1.5000000000000000     
       atom           27  Cd charge =    1.5000000000000000     
       atom           28  Cd charge =    1.5000000000000000     
       atom           29  Cd charge =    1.5000000000000000     
       atom           30  Cd charge =    1.5000000000000000     
       atom           31  Cd charge =    1.5000000000000000     
       atom           32  Cd charge =    1.5000000000000000     
       atom           33  Cd charge =    1.5000000000000000     
       atom           34  Cd charge =    1.5000000000000000     
       atom           35  Cd charge =    1.5000000000000000     
       atom           36  Cd charge =    1.5000000000000000     
       atom           37  Cd charge =    1.5000000000000000     
       atom           38  Cd charge =    1.5000000000000000     
       atom           39  Cd charge =    1.5000000000000000     
       atom           40  Cd charge =    1.5000000000000000     
       atom           41  Cd charge =    1.5000000000000000     
       atom           42  Cd charge =    1.5000000000000000     
       atom           43  Cd charge =    1.5000000000000000     
       atom           44  Cd charge =    1.5000000000000000     
       atom           45  Cd charge =    1.5000000000000000     
       atom           46  Cd charge =    1.5000000000000000     
       atom           47  Cd charge =    1.5000000000000000     
       atom           48  Cd charge =    1.5000000000000000     
       atom           49  Cd charge =    1.5000000000000000     
       atom           50  Cd charge =    1.5000000000000000     
       atom           51  Cd charge =    1.5000000000000000     
       atom           52  Cd charge =    1.5000000000000000     
       atom           53  Cd charge =    1.5000000000000000     
       atom           54  Cd charge =    1.5000000000000000     
       atom           55  Cd charge =    1.5000000000000000     
       atom           56  Cd charge =    1.5000000000000000     
       atom           57  Cd charge =    1.5000000000000000     
       atom           58  Cd charge =    1.5000000000000000     
       atom           59  Cd charge =    1.5000000000000000     
       atom           60  Cd charge =    1.5000000000000000     
       atom           61  Cd charge =    1.5000000000000000     
       atom           62  Cd charge =    1.5000000000000000     
       atom           63  Cd charge =    1.5000000000000000     
       atom           64  Cd charge =    1.5000000000000000     
       atom           65  Cd charge =    1.5000000000000000     
       atom           66  Cd charge =    1.5000000000000000     
       atom           67  Cd charge =    1.5000000000000000     
       atom           68  Cd charge =    1.5000000000000000     
       atom           69  Se charge =   -1.5000000000000000     
       atom           70  Se charge =   -1.5000000000000000     
       atom           71  Se charge =   -1.5000000000000000     
       atom           72  Se charge =   -1.5000000000000000     
       atom           73  Se charge =   -1.5000000000000000     
       atom           74  Se charge =   -1.5000000000000000     
       atom           75  Se charge =   -1.5000000000000000     
       atom           76  Se charge =   -1.5000000000000000     
       atom           77  Se charge =   -1.5000000000000000     
       atom           78  Se charge =   -1.5000000000000000     
       atom           79  Se charge =   -1.5000000000000000     
       atom           80  Se charge =   -1.5000000000000000     
       atom           81  Se charge =   -1.5000000000000000     
       atom           82  Se charge =   -1.5000000000000000     
       atom           83  Se charge =   -1.5000000000000000     
       atom           84  Se charge =   -1.5000000000000000     
       atom           85  Se charge =   -1.5000000000000000     
       atom           86  Se charge =   -1.5000000000000000     
       atom           87  Se charge =   -1.5000000000000000     
       atom           88  Se charge =   -1.5000000000000000     
       atom           89  Se charge =   -1.5000000000000000     
       atom           90  Se charge =   -1.5000000000000000     
       atom           91  Se charge =   -1.5000000000000000     
       atom           92  Se charge =   -1.5000000000000000     
       atom           93  Se charge =   -1.5000000000000000     
       atom           94  Se charge =   -1.5000000000000000     
       atom           95  Se charge =   -1.5000000000000000     
       atom           96  Se charge =   -1.5000000000000000     
       atom           97  Se charge =   -1.5000000000000000     
       atom           98  Se charge =   -1.5000000000000000     
       atom           99  Se charge =   -1.5000000000000000     
       atom          100  Se charge =   -1.5000000000000000     
       atom          101  Se charge =   -1.5000000000000000     
       atom          102  Se charge =   -1.5000000000000000     
       atom          103  Se charge =   -1.5000000000000000     
       atom          104  Se charge =   -1.5000000000000000     
       atom          105  Se charge =   -1.5000000000000000     
       atom          106  Se charge =   -1.5000000000000000     
       atom          107  Se charge =   -1.5000000000000000     
       atom          108  Se charge =   -1.5000000000000000     
       atom          109  Se charge =   -1.5000000000000000     
       atom          110  Se charge =   -1.5000000000000000     
       atom          111  Se charge =   -1.5000000000000000     
       atom          112  Se charge =   -1.5000000000000000     
       atom          113  Se charge =   -1.5000000000000000     
       atom          114  Se charge =   -1.5000000000000000     
       atom          115  Se charge =   -1.5000000000000000     
       atom          116  Se charge =   -1.5000000000000000     
       atom          117  Se charge =   -1.5000000000000000     
       atom          118  Se charge =   -1.5000000000000000     
       atom          119  Se charge =   -1.5000000000000000     
       atom          120  Se charge =   -1.5000000000000000     
       atom          121  Se charge =   -1.5000000000000000     
       atom          122  Se charge =   -1.5000000000000000     
       atom          123  Se charge =   -1.5000000000000000     
       atom          124  C_1 charge =   0.45240000000000002     
       atom          125  H_1 charge =    0.0000000000000000     
       atom          126  O_1 charge =  -0.36595365384615386     
       atom          127  O_1 charge =  -0.36595365384615386     
       atom          128  C_1 charge =   0.45240000000000002     
       atom          129  H_1 charge =    0.0000000000000000     
       atom          130  O_1 charge =  -0.36595365384615386     
       atom          131  O_1 charge =  -0.36595365384615386     
       atom          132  C_1 charge =   0.45240000000000002     
       atom          133  H_1 charge =    0.0000000000000000     
       atom          134  O_1 charge =  -0.36595365384615386     
       atom          135  O_1 charge =  -0.36595365384615386     
       atom          136  C_1 charge =   0.45240000000000002     
       atom          137  H_1 charge =    0.0000000000000000     
       atom          138  O_1 charge =  -0.36595365384615386     
       atom          139  O_1 charge =  -0.36595365384615386     
       atom          140  C_1 charge =   0.45240000000000002     
       atom          141  H_1 charge =    0.0000000000000000     
       atom          142  O_1 charge =  -0.36595365384615386     
       atom          143  O_1 charge =  -0.36595365384615386     
       atom          144  C_1 charge =   0.45240000000000002     
       atom          145  H_1 charge =    0.0000000000000000     
       atom          146  O_1 charge =  -0.36595365384615386     
       atom          147  O_1 charge =  -0.36595365384615386     
       atom          148  C_1 charge =   0.45240000000000002     
       atom          149  H_1 charge =    0.0000000000000000     
       atom          150  O_1 charge =  -0.36595365384615386     
       atom          151  O_1 charge =  -0.36595365384615386     
       atom          152  C_1 charge =   0.45240000000000002     
       atom          153  H_1 charge =    0.0000000000000000     
       atom          154  O_1 charge =  -0.36595365384615386     
       atom          155  O_1 charge =  -0.36595365384615386     
       atom          156  C_1 charge =   0.45240000000000002     
       atom          157  H_1 charge =    0.0000000000000000     
       atom          158  O_1 charge =  -0.36595365384615386     
       atom          159  O_1 charge =  -0.36595365384615386     
       atom          160  C_1 charge =   0.45240000000000002     
       atom          161  H_1 charge =    0.0000000000000000     
       atom          162  O_1 charge =  -0.36595365384615386     
       atom          163  O_1 charge =  -0.36595365384615386     
       atom          164  C_1 charge =   0.45240000000000002     
       atom          165  H_1 charge =    0.0000000000000000     
       atom          166  O_1 charge =  -0.36595365384615386     
       atom          167  O_1 charge =  -0.36595365384615386     
       atom          168  C_1 charge =   0.45240000000000002     
       atom          169  H_1 charge =    0.0000000000000000     
       atom          170  O_1 charge =  -0.36595365384615386     
       atom          171  O_1 charge =  -0.36595365384615386     
       atom          172  C_1 charge =   0.45240000000000002     
       atom          173  H_1 charge =    0.0000000000000000     
       atom          174  O_1 charge =  -0.36595365384615386     
       atom          175  O_1 charge =  -0.36595365384615386     
       atom          176  C_1 charge =   0.45240000000000002     
       atom          177  H_1 charge =    0.0000000000000000     
       atom          178  O_1 charge =  -0.36595365384615386     
       atom          179  O_1 charge =  -0.36595365384615386     
       atom          180  C_1 charge =   0.45240000000000002     
       atom          181  H_1 charge =    0.0000000000000000     
       atom          182  O_1 charge =  -0.36595365384615386     
       atom          183  O_1 charge =  -0.36595365384615386     
       atom          184  C_1 charge =   0.45240000000000002     
       atom          185  H_1 charge =    0.0000000000000000     
       atom          186  O_1 charge =  -0.36595365384615386     
       atom          187  O_1 charge =  -0.36595365384615386     
       atom          188  C_1 charge =   0.45240000000000002     
       atom          189  H_1 charge =    0.0000000000000000     
       atom          190  O_1 charge =  -0.36595365384615386     
       atom          191  O_1 charge =  -0.36595365384615386     
       atom          192  C_1 charge =   0.45240000000000002     
       atom          193  H_1 charge =    0.0000000000000000     
       atom          194  O_1 charge =  -0.36595365384615386     
       atom          195  O_1 charge =  -0.36595365384615386     
       atom          196  C_1 charge =   0.45240000000000002     
       atom          197  H_1 charge =    0.0000000000000000     
       atom          198  O_1 charge =  -0.36595365384615386     
       atom          199  O_1 charge =  -0.36595365384615386     
       atom          200  C_1 charge =   0.45240000000000002     
       atom          201  H_1 charge =    0.0000000000000000     
       atom          202  O_1 charge =  -0.36595365384615386     
       atom          203  O_1 charge =  -0.36595365384615386     
       atom          204  C_1 charge =   0.45240000000000002     
       atom          205  H_1 charge =    0.0000000000000000     
       atom          206  O_1 charge =  -0.36595365384615386     
       atom          207  O_1 charge =  -0.36595365384615386     
       atom          208  C_1 charge =   0.45240000000000002     
       atom          209  H_1 charge =    0.0000000000000000     
       atom          210  O_1 charge =  -0.36595365384615386     
       atom          211  O_1 charge =  -0.36595365384615386     
       atom          212  C_1 charge =   0.45240000000000002     
       atom          213  H_1 charge =    0.0000000000000000     
       atom          214  O_1 charge =  -0.36595365384615386     
       atom          215  O_1 charge =  -0.36595365384615386     
       atom          216  C_1 charge =   0.45240000000000002     
       atom          217  H_1 charge =    0.0000000000000000     
       atom          218  O_1 charge =  -0.36595365384615386     
       atom          219  O_1 charge =  -0.36595365384615386     
       atom          220  C_1 charge =   0.45240000000000002     
       atom          221  H_1 charge =    0.0000000000000000     
       atom          222  O_1 charge =  -0.36595365384615386     
       atom          223  O_1 charge =  -0.36595365384615386     
       atom          224  C_1 charge =   0.45240000000000002     
       atom          225  H_1 charge =    0.0000000000000000     
       atom          226  O_1 charge =  -0.36595365384615386     
       atom          227  O_1 charge =  -0.36595365384615386     
    Total system charge =        12.2328100000
    Total system mass   =  23985470.0628633164
     Mol(           3 ) Old BOND Count:            3           2
     1     2
     3     1
     4     1
     Mol(           3 ) Old BEND Count:            3           2
     3     1     4
     3     1     2
     4     1     2
     Mol(           3 ) Old UB Count:            3           2
     3     1     4
     3     1     2
     4     1     2
     Mol(           3 ) New UB Count:            1           1
     3     1     4
     Mol(           3 ) Old IMPROPER Count:            1           1
     Mol(           3 ) New IMPROPER Count:            0           0
     Mol(           3 ) Old OPBEND Count:            1           1
     Mol(           3 ) New OPBEND Count:            0           0

 MD| Molecular Dynamics Protocol 
 MD| Ensemble Type                                                           NVT
 MD| Number of Time Steps                                                    100
 MD| Time Step [fs]                                                         1.00
 MD| Temperature [K]                                                      300.00
 MD| Temperature tolerance [K]                                              0.00
 MD| Print MD information every                                        1 step(s)
 MD| File type     Print frequency[steps]                             File names
 MD| Coordinates            1                                     cp2k-pos-1.xyz
 MD| Velocities             1                                     cp2k-vel-1.xyz
 MD| Energies               1                                        cp2k-1.ener
 MD| Dump                  20                                     cp2k-1.restart

 ROT| Rotational Analysis Info 
 ROT| Principal axes and moments of inertia in atomic units:
 ROT|                                1                 2                 3
 ROT| EIGENVALUES            0.326220554E+10   0.336484857E+10   0.341428896E+10
 ROT|      X                     0.889329186       0.047517002      -0.454791967
 ROT|      Y                     0.005946844       0.993300189       0.115409577
 ROT|      Z                    -0.457228864       0.105341682      -0.883088272
 ROT| Numer of Rotovibrational vectors:     6

 Calculation of degrees of freedom
                                                      Number of atoms:       227
                                 Number of Intramolecular constraints:         0
                                 Number of Intermolecular constraints:         0
                                  Invariants(translation + rotations):         6
                                                   Degrees of freedom:       675


 Restraints Information
                                  Number of Intramolecular restraints:         0
                                  Number of Intermolecular restraints:         0

 THERMOSTAT| Thermostat Info for PARTICLES
 THERMOSTAT| Type of thermostat            Canonical Sampling/Velocity Rescaling
 THERMOSTAT| CSVR time constant [  fs]                                   1250.00
 THERMOSTAT| Initial Kinetic Energy                                     0.000000
 THERMOSTAT| End of Thermostat Info for PARTICLES

 ************************** Velocities initialization **************************
 Initial Temperature                                                    300.00 K
 COM velocity:            0.000000000000      0.000000000000      0.000000000000
 COM position:            0.162577692601     -0.338774148860      0.870870578750
 Angular velocity:       -0.000000097478      0.000000085085      0.000000505351
 *******************************************************************************


 ENERGY| Total FORCE_EVAL ( FIST ) energy (a.u.):              0.783460497260734


 MD_ENERGIES| Initialization proceeding


 ******************************** GO CP2K GO! **********************************
 INITIAL POTENTIAL ENERGY[hartree]     =                      0.783460497261E+00
 INITIAL KINETIC ENERGY[hartree]       =                      0.320640053508E+00
 INITIAL TEMPERATURE[K]                =                                 300.000
 INITIAL VOLUME[bohr^3]                =                      0.843541822886E+06
 INITIAL CELL LNTHS[bohr]   =      0.9448631E+02   0.9448631E+02   0.9448631E+02
 INITIAL CELL ANGLS[deg]    =      0.9000000E+02   0.9000000E+02   0.9000000E+02
 ******************************** GO CP2K GO! **********************************

 ENERGY| Total FORCE_EVAL ( FIST ) energy (a.u.):              0.559455871137524


 *******************************************************************************
 ENSEMBLE TYPE                =                                              NVT
 STEP NUMBER                  =                                                1
 TIME [fs]                    =                                         1.000000
 CONSERVED QUANTITY [hartree] =                               0.110185369802E+01

                                              INSTANTANEOUS             AVERAGES
 CPU TIME [s]                 =                        0.61                 0.61
 ENERGY DRIFT PER ATOM [K]    =         -0.312554685613E+01   0.000000000000E+00
 POTENTIAL ENERGY[hartree]    =          0.559455871138E+00   0.559455871138E+00
 KINETIC ENERGY [hartree]     =          0.541982781278E+00   0.541982781278E+00
 TEMPERATURE [K]              =                     507.095              507.095
 *******************************************************************************


 ENERGY| Total FORCE_EVAL ( FIST ) energy (a.u.):             -0.076618668024624


 *******************************************************************************
 ENSEMBLE TYPE                =                                              NVT
 STEP NUMBER                  =                                                2
 TIME [fs]                    =                                         2.000000
 CONSERVED QUANTITY [hartree] =                               0.109598473021E+01

                                              INSTANTANEOUS             AVERAGES
 CPU TIME [s]                 =                        0.04                 0.33
 ENERGY DRIFT PER ATOM [K]    =         -0.112897373485E+02  -0.564486867425E+01
 POTENTIAL ENERGY[hartree]    =         -0.766186680246E-01   0.241418601556E+00
 KINETIC ENERGY [hartree]     =          0.117058488934E+01   0.856283835307E+00
 TEMPERATURE [K]              =                    1095.233              801.164
 *******************************************************************************


 ENERGY| Total FORCE_EVAL ( FIST ) energy (a.u.):             -1.031678270324627


 *******************************************************************************
 ENSEMBLE TYPE                =                                              NVT
 STEP NUMBER                  =                                                3
 TIME [fs]                    =                                         3.000000
 CONSERVED QUANTITY [hartree] =                               0.108855712326E+01

                                              INSTANTANEOUS             AVERAGES
 CPU TIME [s]                 =                        0.03                 0.23
 ENERGY DRIFT PER ATOM [K]    =         -0.216221160672E+02  -0.109706178052E+02
 POTENTIAL ENERGY[hartree]    =         -0.103167827032E+01  -0.182947022404E+00
 KINETIC ENERGY [hartree]     =          0.211702175684E+01   0.127652980915E+01
 TEMPERATURE [K]              =                    1980.746             1194.358
 *******************************************************************************


 ENERGY| Total FORCE_EVAL ( FIST ) energy (a.u.):             -2.189005492152313


 *******************************************************************************
 ENSEMBLE TYPE                =                                              NVT
 STEP NUMBER                  =                                                4
 TIME [fs]                    =                                         4.000000
 CONSERVED QUANTITY [hartree] =                               0.108169806567E+01

                                              INSTANTANEOUS             AVERAGES
 CPU TIME [s]                 =                        0.03                 0.18
 ENERGY DRIFT PER ATOM [K]    =         -0.311635984349E+02  -0.160188629626E+02
 POTENTIAL ENERGY[hartree]    =         -0.218900549215E+01  -0.684461639841E+00
 KINETIC ENERGY [hartree]     =          0.326834822147E+01   0.177448441223E+01
 TEMPERATURE [K]              =                    3057.960             1660.258
 *******************************************************************************


 ENERGY| Total FORCE_EVAL ( FIST ) energy (a.u.):             -3.435087154230225


 *******************************************************************************
 ENSEMBLE TYPE                =                                              NVT
 STEP NUMBER                  =                                                5
 TIME [fs]                    =                                         5.000000
 CONSERVED QUANTITY [hartree] =                               0.107653041139E+01

                                              INSTANTANEOUS             AVERAGES
 CPU TIME [s]                 =                        0.04                 0.15
 ENERGY DRIFT PER ATOM [K]    =         -0.383522072842E+02  -0.204855318270E+02
 POTENTIAL ENERGY[hartree]    =         -0.343508715423E+01  -0.123458674272E+01
 KINETIC ENERGY [hartree]     =          0.450483814133E+01   0.232055515805E+01
 TEMPERATURE [K]              =                    4214.855             2171.178
 *******************************************************************************


 ENERGY| Total FORCE_EVAL ( FIST ) energy (a.u.):             -4.680066294893125


 *******************************************************************************
 ENSEMBLE TYPE                =                                              NVT
 STEP NUMBER                  =                                                6
 TIME [fs]                    =                                         6.000000
 CONSERVED QUANTITY [hartree] =                               0.107295128323E+01

                                              INSTANTANEOUS             AVERAGES
 CPU TIME [s]                 =                        0.03                 0.13
 ENERGY DRIFT PER ATOM [K]    =         -0.433310528235E+02  -0.242931186597E+02
 POTENTIAL ENERGY[hartree]    =         -0.468006629489E+01  -0.180883333475E+01
 KINETIC ENERGY [hartree]     =          0.574577015589E+01   0.289142432436E+01
 TEMPERATURE [K]              =                    5375.907             2705.299
 *******************************************************************************


 ENERGY| Total FORCE_EVAL ( FIST ) energy (a.u.):             -5.859612046755561


 *******************************************************************************
 ENSEMBLE TYPE                =                                              NVT
 STEP NUMBER                  =                                                7
 TIME [fs]                    =                                         7.000000
 CONSERVED QUANTITY [hartree] =                               0.107119544164E+01

                                              INSTANTANEOUS             AVERAGES
 CPU TIME [s]                 =                        0.03                 0.12
 ENERGY DRIFT PER ATOM [K]    =         -0.457735649796E+02  -0.273617538483E+02
 POTENTIAL ENERGY[hartree]    =         -0.585961204676E+01  -0.238751600789E+01
 KINETIC ENERGY [hartree]     =          0.691803238399E+01   0.346665404716E+01
 TEMPERATURE [K]              =                    6472.709             3243.501
 *******************************************************************************


 ENERGY| Total FORCE_EVAL ( FIST ) energy (a.u.):             -6.932643341137407


 *******************************************************************************
 ENSEMBLE TYPE                =                                              NVT
 STEP NUMBER                  =                                                8
 TIME [fs]                    =                                         8.000000
 CONSERVED QUANTITY [hartree] =                               0.106994557018E+01

                                              INSTANTANEOUS             AVERAGES
 CPU TIME [s]                 =                        0.04                 0.11
 ENERGY DRIFT PER ATOM [K]    =         -0.475122333521E+02  -0.298805637863E+02
 POTENTIAL ENERGY[hartree]    =         -0.693264334114E+01  -0.295565692455E+01
 KINETIC ENERGY [hartree]     =          0.798240992180E+01   0.403112353149E+01
 TEMPERATURE [K]              =                    7468.571             3771.634
 *******************************************************************************


 ENERGY| Total FORCE_EVAL ( FIST ) energy (a.u.):             -7.873113678397518


 *******************************************************************************
 ENSEMBLE TYPE                =                                              NVT
 STEP NUMBER                  =                                                9
 TIME [fs]                    =                                         9.000000
 CONSERVED QUANTITY [hartree] =                               0.107027689873E+01

                                              INSTANTANEOUS             AVERAGES
 CPU TIME [s]                 =                        0.03                 0.10
 ENERGY DRIFT PER ATOM [K]    =         -0.470513295725E+02  -0.317884266514E+02
 POTENTIAL ENERGY[hartree]    =         -0.787311367840E+01  -0.350204100831E+01
 KINETIC ENERGY [hartree]     =          0.891683024852E+01   0.457397983338E+01
 TEMPERATURE [K]              =                    8342.841             4279.546
 *******************************************************************************


 ENERGY| Total FORCE_EVAL ( FIST ) energy (a.u.):             -8.674284433951209


 *******************************************************************************
 ENSEMBLE TYPE                =                                              NVT
 STEP NUMBER                  =                                               10
 TIME [fs]                    =                                        10.000000
 CONSERVED QUANTITY [hartree] =                               0.107137208190E+01

                                              INSTANTANEOUS             AVERAGES
 CPU TIME [s]                 =                        0.04                 0.09
 ENERGY DRIFT PER ATOM [K]    =         -0.455278446382E+02  -0.331623684501E+02
 POTENTIAL ENERGY[hartree]    =         -0.867428443395E+01  -0.401926535087E+01
 KINETIC ENERGY [hartree]     =          0.971072884929E+01   0.508765473497E+01
 TEMPERATURE [K]              =                    9085.636             4760.155
 *******************************************************************************


 ENERGY| Total FORCE_EVAL ( FIST ) energy (a.u.):             -9.346274871510182


 *******************************************************************************
 ENSEMBLE TYPE                =                                              NVT
 STEP NUMBER                  =                                               11
 TIME [fs]                    =                                        11.000000
 CONSERVED QUANTITY [hartree] =                               0.107311422332E+01

                                              INSTANTANEOUS             AVERAGES
 CPU TIME [s]                 =                        0.03                 0.09
 ENERGY DRIFT PER ATOM [K]    =         -0.431043904842E+02  -0.340661886350E+02
 POTENTIAL ENERGY[hartree]    =         -0.934627487151E+01  -0.450353894366E+01
 KINETIC ENERGY [hartree]     =          0.103763993082E+02   0.556844969617E+01
 TEMPERATURE [K]              =                    9708.456             5210.001
 *******************************************************************************


 ENERGY| Total FORCE_EVAL ( FIST ) energy (a.u.):             -9.912568062573831


 *******************************************************************************
 ENSEMBLE TYPE                =                                              NVT
 STEP NUMBER                  =                                               12
 TIME [fs]                    =                                        12.000000
 CONSERVED QUANTITY [hartree] =                               0.107576830415E+01

                                              INSTANTANEOUS             AVERAGES
 CPU TIME [s]                 =                        0.03                 0.08
 ENERGY DRIFT PER ATOM [K]    =         -0.394123577164E+02  -0.345117027251E+02
 POTENTIAL ENERGY[hartree]    =         -0.991256806257E+01  -0.495429137023E+01
 KINETIC ENERGY [hartree]     =          0.109367303851E+02   0.601580642025E+01
 TEMPERATURE [K]              =                   10232.718             5628.560
 *******************************************************************************


 ENERGY| Total FORCE_EVAL ( FIST ) energy (a.u.):            -10.405172041267493


 *******************************************************************************
 ENSEMBLE TYPE                =                                              NVT
 STEP NUMBER                  =                                               13
 TIME [fs]                    =                                        13.000000
 CONSERVED QUANTITY [hartree] =                               0.107728618779E+01

                                              INSTANTANEOUS             AVERAGES
 CPU TIME [s]                 =                        0.03                 0.08
 ENERGY DRIFT PER ATOM [K]    =         -0.373008635555E+02  -0.347262535582E+02
 POTENTIAL ENERGY[hartree]    =         -0.104051720413E+02  -0.537358988339E+01
 KINETIC ENERGY [hartree]     =          0.114158381302E+02   0.643119347486E+01
 TEMPERATURE [K]              =                   10680.984             6017.208
 *******************************************************************************


 ENERGY| Total FORCE_EVAL ( FIST ) energy (a.u.):            -10.848985394773463


 *******************************************************************************
 ENSEMBLE TYPE                =                                              NVT
 STEP NUMBER                  =                                               14
 TIME [fs]                    =                                        14.000000
 CONSERVED QUANTITY [hartree] =                               0.107854421814E+01

                                              INSTANTANEOUS             AVERAGES
 CPU TIME [s]                 =                        0.03                 0.08
 ENERGY DRIFT PER ATOM [K]    =         -0.355508455335E+02  -0.347851529850E+02
 POTENTIAL ENERGY[hartree]    =         -0.108489853948E+02  -0.576468956278E+01
 KINETIC ENERGY [hartree]     =          0.118499226659E+02   0.681824555994E+01
 TEMPERATURE [K]              =                   11087.126             6379.345
 *******************************************************************************


 ENERGY| Total FORCE_EVAL ( FIST ) energy (a.u.):            -11.259228260251479


 *******************************************************************************
 ENSEMBLE TYPE                =                                              NVT
 STEP NUMBER                  =                                               15
 TIME [fs]                    =                                        15.000000
 CONSERVED QUANTITY [hartree] =                               0.107873720412E+01

                                              INSTANTANEOUS             AVERAGES
 CPU TIME [s]                 =                        0.30                 0.09
 ENERGY DRIFT PER ATOM [K]    =         -0.352823870413E+02  -0.348183019221E+02
 POTENTIAL ENERGY[hartree]    =         -0.112592282603E+02  -0.613099214261E+01
 KINETIC ENERGY [hartree]     =          0.122566397097E+02   0.718080516992E+01
 TEMPERATURE [K]              =                   11467.662             6718.567
 *******************************************************************************


 ENERGY| Total FORCE_EVAL ( FIST ) energy (a.u.):            -11.643201063102680


 *******************************************************************************
 ENSEMBLE TYPE                =                                              NVT
 STEP NUMBER                  =                                               16
 TIME [fs]                    =                                        16.000000
 CONSERVED QUANTITY [hartree] =                               0.108011540240E+01

                                              INSTANTANEOUS             AVERAGES
 CPU TIME [s]                 =                        0.03                 0.09
 ENERGY DRIFT PER ATOM [K]    =         -0.333652060780E+02  -0.347274834319E+02
 POTENTIAL ENERGY[hartree]    =         -0.116432010631E+02  -0.647550520014E+01
 KINETIC ENERGY [hartree]     =          0.126361385082E+02   0.752176350357E+01
 TEMPERATURE [K]              =                   11822.732             7037.577
 *******************************************************************************


 ENERGY| Total FORCE_EVAL ( FIST ) energy (a.u.):            -12.012733552311909


 *******************************************************************************
 ENSEMBLE TYPE                =                                              NVT
 STEP NUMBER                  =                                               17
 TIME [fs]                    =                                        17.000000
 CONSERVED QUANTITY [hartree] =                               0.108115777897E+01

                                              INSTANTANEOUS             AVERAGES
 CPU TIME [s]                 =                        0.03                 0.08
 ENERGY DRIFT PER ATOM [K]    =         -0.319151792343E+02  -0.345620537732E+02
 POTENTIAL ENERGY[hartree]    =         -0.120127335523E+02  -0.680122451497E+01
 KINETIC ENERGY [hartree]     =          0.129906515038E+02   0.784346279770E+01
 TEMPERATURE [K]              =                   12154.425             7338.568
 *******************************************************************************


 ENERGY| Total FORCE_EVAL ( FIST ) energy (a.u.):            -12.384684295828439


 *******************************************************************************
 ENSEMBLE TYPE                =                                              NVT
 STEP NUMBER                  =                                               18
 TIME [fs]                    =                                        18.000000
 CONSERVED QUANTITY [hartree] =                               0.108264107036E+01

                                              INSTANTANEOUS             AVERAGES
 CPU TIME [s]                 =                        0.03                 0.08
 ENERGY DRIFT PER ATOM [K]    =         -0.298518055971E+02  -0.343003733189E+02
 POTENTIAL ENERGY[hartree]    =         -0.123846842958E+02  -0.711141672502E+01
 KINETIC ENERGY [hartree]     =          0.133498030336E+02   0.814937058858E+01
 TEMPERATURE [K]              =                   12490.457             7624.784
 *******************************************************************************


 ENERGY| Total FORCE_EVAL ( FIST ) energy (a.u.):            -12.780058534229887


 *******************************************************************************
 ENSEMBLE TYPE                =                                              NVT
 STEP NUMBER                  =                                               19
 TIME [fs]                    =                                        19.000000
 CONSERVED QUANTITY [hartree] =                               0.108367301855E+01

                                              INSTANTANEOUS             AVERAGES
 CPU TIME [s]                 =                        0.03                 0.08
 ENERGY DRIFT PER ATOM [K]    =         -0.284162854314E+02  -0.339906844828E+02
 POTENTIAL ENERGY[hartree]    =         -0.127800585342E+02  -0.740976629393E+01
 KINETIC ENERGY [hartree]     =          0.137308265770E+02   0.844313143007E+01
 TEMPERATURE [K]              =                   12846.954             7899.635
 *******************************************************************************


 ENERGY| Total FORCE_EVAL ( FIST ) energy (a.u.):            -13.208636479618422


 *******************************************************************************
 ENSEMBLE TYPE                =                                              NVT
 STEP NUMBER                  =                                               20
 TIME [fs]                    =                                        20.000000
 CONSERVED QUANTITY [hartree] =                               0.108463949914E+01

                                              INSTANTANEOUS             AVERAGES
 CPU TIME [s]                 =                        0.03                 0.08
 ENERGY DRIFT PER ATOM [K]    =         -0.270718357923E+02  -0.336447420482E+02
 POTENTIAL ENERGY[hartree]    =         -0.132086364796E+02  -0.769970980321E+01
 KINETIC ENERGY [hartree]     =          0.141506871588E+02   0.872850921651E+01
 TEMPERATURE [K]              =                   13239.787             8166.643
 *******************************************************************************


 ENERGY| Total FORCE_EVAL ( FIST ) energy (a.u.):            -13.671627692328697


 *******************************************************************************
 ENSEMBLE TYPE                =                                              NVT
 STEP NUMBER                  =                                               21
 TIME [fs]                    =                                        21.000000
 CONSERVED QUANTITY [hartree] =                               0.108382110513E+01

                                              INSTANTANEOUS             AVERAGES
 CPU TIME [s]                 =                        0.05                 0.07
 ENERGY DRIFT PER ATOM [K]    =         -0.282102854907E+02  -0.333859584026E+02
 POTENTIAL ENERGY[hartree]    =         -0.136716276923E+02  -0.798408684555E+01
 KINETIC ENERGY [hartree]     =          0.146058469133E+02   0.900838244016E+01
 TEMPERATURE [K]              =                   13665.648             8428.500
 *******************************************************************************


 ENERGY| Total FORCE_EVAL ( FIST ) energy (a.u.):            -14.158277536414442


 *******************************************************************************
 ENSEMBLE TYPE                =                                              NVT
 STEP NUMBER                  =                                               22
 TIME [fs]                    =                                        22.000000
 CONSERVED QUANTITY [hartree] =                               0.108285540158E+01

                                              INSTANTANEOUS             AVERAGES
 CPU TIME [s]                 =                        0.04                 0.07
 ENERGY DRIFT PER ATOM [K]    =         -0.295536542053E+02  -0.332117627573E+02
 POTENTIAL ENERGY[hartree]    =         -0.141582775364E+02  -0.826473187695E+01
 KINETIC ENERGY [hartree]     =          0.150791271355E+02   0.928432538086E+01
 TEMPERATURE [K]              =                   14108.462             8686.680
 *******************************************************************************


 ENERGY| Total FORCE_EVAL ( FIST ) energy (a.u.):            -14.653960225453774


 *******************************************************************************
 ENSEMBLE TYPE                =                                              NVT
 STEP NUMBER                  =                                               23
 TIME [fs]                    =                                        23.000000
 CONSERVED QUANTITY [hartree] =                               0.108190981849E+01

                                              INSTANTANEOUS             AVERAGES
 CPU TIME [s]                 =                        0.03                 0.07
 ENERGY DRIFT PER ATOM [K]    =         -0.308690338028E+02  -0.331099049767E+02
 POTENTIAL ENERGY[hartree]    =         -0.146539602255E+02  -0.854252441384E+01
 KINETIC ENERGY [hartree]     =          0.155631674563E+02   0.955731851458E+01
 TEMPERATURE [K]              =                   14561.344             8942.100
 *******************************************************************************


 ENERGY| Total FORCE_EVAL ( FIST ) energy (a.u.):            -15.147305302458502


 *******************************************************************************
 ENSEMBLE TYPE                =                                              NVT
 STEP NUMBER                  =                                               24
 TIME [fs]                    =                                        24.000000
 CONSERVED QUANTITY [hartree] =                               0.108164425385E+01

                                              INSTANTANEOUS             AVERAGES
 CPU TIME [s]                 =                        0.04                 0.07
 ENERGY DRIFT PER ATOM [K]    =         -0.312384548629E+02  -0.330319278886E+02
 POTENTIAL ENERGY[hartree]    =         -0.151473053025E+02  -0.881772361754E+01
 KINETIC ENERGY [hartree]     =          0.160466171318E+02   0.982770595696E+01
 TEMPERATURE [K]              =                   15013.674             9195.083
 *******************************************************************************


 ENERGY| Total FORCE_EVAL ( FIST ) energy (a.u.):            -15.635500976188764


 *******************************************************************************
 ENSEMBLE TYPE                =                                              NVT
 STEP NUMBER                  =                                               25
 TIME [fs]                    =                                        25.000000
 CONSERVED QUANTITY [hartree] =                               0.108225641749E+01

                                              INSTANTANEOUS             AVERAGES
 CPU TIME [s]                 =                        0.03                 0.07
 ENERGY DRIFT PER ATOM [K]    =         -0.303868876417E+02  -0.329261262787E+02
 POTENTIAL ENERGY[hartree]    =         -0.156355009762E+02  -0.909043471188E+01
 KINETIC ENERGY [hartree]     =          0.165259401628E+02   0.100956353252E+02
 TEMPERATURE [K]              =                   15462.142             9445.765
 *******************************************************************************


 ENERGY| Total FORCE_EVAL ( FIST ) energy (a.u.):            -16.120746539843626


 *******************************************************************************
 ENSEMBLE TYPE                =                                              NVT
 STEP NUMBER                  =                                               26
 TIME [fs]                    =                                        26.000000
 CONSERVED QUANTITY [hartree] =                               0.108277491999E+01

                                              INSTANTANEOUS             AVERAGES
 CPU TIME [s]                 =                        0.29                 0.08
 ENERGY DRIFT PER ATOM [K]    =         -0.296656103520E+02  -0.328007218200E+02
 POTENTIAL ENERGY[hartree]    =         -0.161207465398E+02  -0.936083132065E+01
 KINETIC ENERGY [hartree]     =          0.169892752099E+02   0.103607753208E+02
 TEMPERATURE [K]              =                   15895.652             9693.838
 *******************************************************************************


 ENERGY| Total FORCE_EVAL ( FIST ) energy (a.u.):            -16.604810392728314


 *******************************************************************************
 ENSEMBLE TYPE                =                                              NVT
 STEP NUMBER                  =                                               27
 TIME [fs]                    =                                        27.000000
 CONSERVED QUANTITY [hartree] =                               0.108218296309E+01

                                              INSTANTANEOUS             AVERAGES
 CPU TIME [s]                 =                        0.03                 0.08
 ENERGY DRIFT PER ATOM [K]    =         -0.304890684181E+02  -0.327151050273E+02
 POTENTIAL ENERGY[hartree]    =         -0.166048103927E+02  -0.962912684184E+01
 KINETIC ENERGY [hartree]     =          0.174658290715E+02   0.106239254597E+02
 TEMPERATURE [K]              =                   16341.529             9940.048
 *******************************************************************************


 ENERGY| Total FORCE_EVAL ( FIST ) energy (a.u.):            -17.081036335194344


 *******************************************************************************
 ENSEMBLE TYPE                =                                              NVT
 STEP NUMBER                  =                                               28
 TIME [fs]                    =                                        28.000000
 CONSERVED QUANTITY [hartree] =                               0.108230034035E+01

                                              INSTANTANEOUS             AVERAGES
 CPU TIME [s]                 =                        0.03                 0.07
 ENERGY DRIFT PER ATOM [K]    =         -0.303257875347E+02  -0.326297722598E+02
 POTENTIAL ENERGY[hartree]    =         -0.170810363352E+02  -0.989526646660E+01
 KINETIC ENERGY [hartree]     =          0.179328891254E+02   0.108849598763E+02
 TEMPERATURE [K]              =                   16778.524            10184.280
 *******************************************************************************


 ENERGY| Total FORCE_EVAL ( FIST ) energy (a.u.):            -17.540632042028804


 *******************************************************************************
 ENSEMBLE TYPE                =                                              NVT
 STEP NUMBER                  =                                               29
 TIME [fs]                    =                                        29.000000
 CONSERVED QUANTITY [hartree] =                               0.108176380859E+01

                                              INSTANTANEOUS             AVERAGES
 CPU TIME [s]                 =                        0.03                 0.07
 ENERGY DRIFT PER ATOM [K]    =         -0.310721449253E+02  -0.325760609724E+02
 POTENTIAL ENERGY[hartree]    =         -0.175406320420E+02  -0.101588997623E+02
 KINETIC ENERGY [hartree]     =          0.183873229512E+02   0.111436620513E+02
 TEMPERATURE [K]              =                   17203.705            10426.329
 *******************************************************************************


 ENERGY| Total FORCE_EVAL ( FIST ) energy (a.u.):            -17.971184562885760


 *******************************************************************************
 ENSEMBLE TYPE                =                                              NVT
 STEP NUMBER                  =                                               30
 TIME [fs]                    =                                        30.000000
 CONSERVED QUANTITY [hartree] =                               0.108221823701E+01

                                              INSTANTANEOUS             AVERAGES
 CPU TIME [s]                 =                        0.04                 0.07
 ENERGY DRIFT PER ATOM [K]    =         -0.304399996530E+02  -0.325048589284E+02
 POTENTIAL ENERGY[hartree]    =         -0.179711845629E+02  -0.104193092557E+02
 KINETIC ENERGY [hartree]     =          0.188056710150E+02   0.113990623501E+02
 TEMPERATURE [K]              =                   17595.123            10665.289
 *******************************************************************************


 ENERGY| Total FORCE_EVAL ( FIST ) energy (a.u.):            -18.367025067069747


 *******************************************************************************
 ENSEMBLE TYPE                =                                              NVT
 STEP NUMBER                  =                                               31
 TIME [fs]                    =                                        31.000000
 CONSERVED QUANTITY [hartree] =                               0.108179638168E+01

                                              INSTANTANEOUS             AVERAGES
 CPU TIME [s]                 =                        0.03                 0.07
 ENERGY DRIFT PER ATOM [K]    =         -0.310268332193E+02  -0.324571806797E+02
 POTENTIAL ENERGY[hartree]    =         -0.183670250671E+02  -0.106756871851E+02
 KINETIC ENERGY [hartree]     =          0.191813303993E+02   0.116501032549E+02
 TEMPERATURE [K]              =                   17946.601            10900.170
 *******************************************************************************


 ENERGY| Total FORCE_EVAL ( FIST ) energy (a.u.):            -18.727722967814099


 *******************************************************************************
 ENSEMBLE TYPE                =                                              NVT
 STEP NUMBER                  =                                               32
 TIME [fs]                    =                                        32.000000
 CONSERVED QUANTITY [hartree] =                               0.108288081461E+01

                                              INSTANTANEOUS             AVERAGES
 CPU TIME [s]                 =                        0.04                 0.07
 ENERGY DRIFT PER ATOM [K]    =         -0.295183027030E+02  -0.323653407429E+02
 POTENTIAL ENERGY[hartree]    =         -0.187277229678E+02  -0.109273133033E+02
 KINETIC ENERGY [hartree]     =          0.195210296910E+02   0.118960697060E+02
 TEMPERATURE [K]              =                   18264.433            11130.303
 *******************************************************************************


 ENERGY| Total FORCE_EVAL ( FIST ) energy (a.u.):            -19.060347022229255


 *******************************************************************************
 ENSEMBLE TYPE                =                                              NVT
 STEP NUMBER                  =                                               33
 TIME [fs]                    =                                        33.000000
 CONSERVED QUANTITY [hartree] =                               0.108329657615E+01

                                              INSTANTANEOUS             AVERAGES
 CPU TIME [s]                 =                        0.03                 0.07
 ENERGY DRIFT PER ATOM [K]    =         -0.289399460792E+02  -0.322615409046E+02
 POTENTIAL ENERGY[hartree]    =         -0.190603470222E+02  -0.111737688705E+02
 KINETIC ENERGY [hartree]     =          0.198541334758E+02   0.121372231536E+02
 TEMPERATURE [K]              =                   18576.095            11355.933
 *******************************************************************************


 ENERGY| Total FORCE_EVAL ( FIST ) energy (a.u.):            -19.366873511644279


 *******************************************************************************
 ENSEMBLE TYPE                =                                              NVT
 STEP NUMBER                  =                                               34
 TIME [fs]                    =                                        34.000000
 CONSERVED QUANTITY [hartree] =                               0.108306923226E+01

                                              INSTANTANEOUS             AVERAGES
 CPU TIME [s]                 =                        0.03                 0.07
 ENERGY DRIFT PER ATOM [K]    =         -0.292561991066E+02  -0.321731484988E+02
 POTENTIAL ENERGY[hartree]    =         -0.193668735116E+02  -0.114147425364E+02
 KINETIC ENERGY [hartree]     =          0.201417731623E+02   0.123726510950E+02
 TEMPERATURE [K]              =                   18845.219            11576.206
 *******************************************************************************


 ENERGY| Total FORCE_EVAL ( FIST ) energy (a.u.):            -19.643773979765115


 *******************************************************************************
 ENSEMBLE TYPE                =                                              NVT
 STEP NUMBER                  =                                               35
 TIME [fs]                    =                                        35.000000
 CONSERVED QUANTITY [hartree] =                               0.108232486926E+01

                                              INSTANTANEOUS             AVERAGES
 CPU TIME [s]                 =                        0.04                 0.07
 ENERGY DRIFT PER ATOM [K]    =         -0.302916659036E+02  -0.321193918532E+02
 POTENTIAL ENERGY[hartree]    =         -0.196437739798E+02  -0.116498577205E+02
 KINETIC ENERGY [hartree]     =          0.204075462275E+02   0.126022195274E+02
 TEMPERATURE [K]              =                   19093.884            11790.997
 *******************************************************************************


 ENERGY| Total FORCE_EVAL ( FIST ) energy (a.u.):            -19.884515234726262


 *******************************************************************************
 ENSEMBLE TYPE                =                                              NVT
 STEP NUMBER                  =                                               36
 TIME [fs]                    =                                        36.000000
 CONSERVED QUANTITY [hartree] =                               0.108254815722E+01

                                              INSTANTANEOUS             AVERAGES
 CPU TIME [s]                 =                        0.30                 0.07
 ENERGY DRIFT PER ATOM [K]    =         -0.299810549965E+02  -0.320599936072E+02
 POTENTIAL ENERGY[hartree]    =         -0.198845152347E+02  -0.118785982070E+02
 KINETIC ENERGY [hartree]     =          0.206328485710E+02   0.128252925564E+02
 TEMPERATURE [K]              =                   19304.683            11999.710
 *******************************************************************************


 ENERGY| Total FORCE_EVAL ( FIST ) energy (a.u.):            -20.093322142167789


 *******************************************************************************
 ENSEMBLE TYPE                =                                              NVT
 STEP NUMBER                  =                                               37
 TIME [fs]                    =                                        37.000000
 CONSERVED QUANTITY [hartree] =                               0.108293737484E+01

                                              INSTANTANEOUS             AVERAGES
 CPU TIME [s]                 =                        0.03                 0.07
 ENERGY DRIFT PER ATOM [K]    =         -0.294396230258E+02  -0.319891727807E+02
 POTENTIAL ENERGY[hartree]    =         -0.200933221422E+02  -0.121006177728E+02
 KINETIC ENERGY [hartree]     =          0.208316844233E+02   0.130416815258E+02
 TEMPERATURE [K]              =                   19490.719            12202.170
 *******************************************************************************


 ENERGY| Total FORCE_EVAL ( FIST ) energy (a.u.):            -20.277065869427609


 *******************************************************************************
 ENSEMBLE TYPE                =                                              NVT
 STEP NUMBER                  =                                               38
 TIME [fs]                    =                                        38.000000
 CONSERVED QUANTITY [hartree] =                               0.108401684631E+01

                                              INSTANTANEOUS             AVERAGES
 CPU TIME [s]                 =                        0.03                 0.07
 ENERGY DRIFT PER ATOM [K]    =         -0.279379942910E+02  -0.318825628204E+02
 POTENTIAL ENERGY[hartree]    =         -0.202770658694E+02  -0.123157874596E+02
 KINETIC ENERGY [hartree]     =          0.210050119224E+02   0.132512428520E+02
 TEMPERATURE [K]              =                   19652.890            12398.242
 *******************************************************************************


 ENERGY| Total FORCE_EVAL ( FIST ) energy (a.u.):            -20.447275081888371


 *******************************************************************************
 ENSEMBLE TYPE                =                                              NVT
 STEP NUMBER                  =                                               39
 TIME [fs]                    =                                        39.000000
 CONSERVED QUANTITY [hartree] =                               0.108528117219E+01

                                              INSTANTANEOUS             AVERAGES
 CPU TIME [s]                 =                        0.03                 0.07
 ENERGY DRIFT PER ATOM [K]    =         -0.261792186912E+02  -0.317363232274E+02
 POTENTIAL ENERGY[hartree]    =         -0.204472750819E+02  -0.125242871422E+02
 KINETIC ENERGY [hartree]     =          0.211668044508E+02   0.134542059699E+02
 TEMPERATURE [K]              =                   19804.267            12588.140
 *******************************************************************************


 ENERGY| Total FORCE_EVAL ( FIST ) energy (a.u.):            -20.616438643333641


 *******************************************************************************
 ENSEMBLE TYPE                =                                              NVT
 STEP NUMBER                  =                                               40
 TIME [fs]                    =                                        40.000000
 CONSERVED QUANTITY [hartree] =                               0.108569687543E+01

                                              INSTANTANEOUS             AVERAGES
 CPU TIME [s]                 =                        0.03                 0.07
 ENERGY DRIFT PER ATOM [K]    =         -0.256009431701E+02  -0.315829387259E+02
 POTENTIAL ENERGY[hartree]    =         -0.206164386433E+02  -0.127265909297E+02
 KINETIC ENERGY [hartree]     =          0.213167051324E+02   0.136507684490E+02
 TEMPERATURE [K]              =                   19944.519            12772.049
 *******************************************************************************


 ENERGY| Total FORCE_EVAL ( FIST ) energy (a.u.):            -20.788530936777178


 *******************************************************************************
 ENSEMBLE TYPE                =                                              NVT
 STEP NUMBER                  =                                               41
 TIME [fs]                    =                                        41.000000
 CONSERVED QUANTITY [hartree] =                               0.108558459818E+01

                                              INSTANTANEOUS             AVERAGES
 CPU TIME [s]                 =                        0.04                 0.07
 ENERGY DRIFT PER ATOM [K]    =         -0.257571295608E+02  -0.314408458195E+02
 POTENTIAL ENERGY[hartree]    =         -0.207885309368E+02  -0.129232236128E+02
 KINETIC ENERGY [hartree]     =          0.214744448357E+02   0.138415898242E+02
 TEMPERATURE [K]              =                   20092.104            12950.587
 *******************************************************************************


 ENERGY| Total FORCE_EVAL ( FIST ) energy (a.u.):            -20.957763383624297


 *******************************************************************************
 ENSEMBLE TYPE                =                                              NVT
 STEP NUMBER                  =                                               42
 TIME [fs]                    =                                        42.000000
 CONSERVED QUANTITY [hartree] =                               0.108530929952E+01

                                              INSTANTANEOUS             AVERAGES
 CPU TIME [s]                 =                        0.03                 0.07
 ENERGY DRIFT PER ATOM [K]    =         -0.261400913885E+02  -0.313146373806E+02
 POTENTIAL ENERGY[hartree]    =         -0.209577633836E+02  -0.131145221788E+02
 KINETIC ENERGY [hartree]     =          0.216272019780E+02   0.140269615422E+02
 TEMPERATURE [K]              =                   20235.028            13124.026
 *******************************************************************************


 ENERGY| Total FORCE_EVAL ( FIST ) energy (a.u.):            -21.113410137539798


 *******************************************************************************
 ENSEMBLE TYPE                =                                              NVT
 STEP NUMBER                  =                                               43
 TIME [fs]                    =                                        43.000000
 CONSERVED QUANTITY [hartree] =                               0.108458774719E+01

                                              INSTANTANEOUS             AVERAGES
 CPU TIME [s]                 =                        0.03                 0.07
 ENERGY DRIFT PER ATOM [K]    =         -0.271438267815E+02  -0.312176417853E+02
[...]


 ENERGY| Total FORCE_EVAL ( FIST ) energy (a.u.):            -22.875369324260671


 *******************************************************************************
 ENSEMBLE TYPE                =                                              NVT
 STEP NUMBER                  =                                               87
 TIME [fs]                    =                                        87.000000
 CONSERVED QUANTITY [hartree] =                               0.108659108059E+01

                                              INSTANTANEOUS             AVERAGES
 CPU TIME [s]                 =                        0.04                 0.09
 ENERGY DRIFT PER ATOM [K]    =         -0.243570342702E+02  -0.287167465650E+02
 POTENTIAL ENERGY[hartree]    =         -0.228753693243E+02  -0.178894261916E+02
 KINETIC ENERGY [hartree]     =          0.226892452215E+02   0.184448789545E+02
 TEMPERATURE [K]              =                   21228.706            17257.556
 *******************************************************************************


 ENERGY| Total FORCE_EVAL ( FIST ) energy (a.u.):            -22.888347567336179


 *******************************************************************************
 ENSEMBLE TYPE                =                                              NVT
 STEP NUMBER                  =                                               88
 TIME [fs]                    =                                        88.000000
 CONSERVED QUANTITY [hartree] =                               0.108514943689E+01

                                              INSTANTANEOUS             AVERAGES
 CPU TIME [s]                 =                        0.04                 0.09
 ENERGY DRIFT PER ATOM [K]    =         -0.263624727417E+02  -0.286899934534E+02
 POTENTIAL ENERGY[hartree]    =         -0.228883475673E+02  -0.179462321163E+02
 KINETIC ENERGY [hartree]     =          0.226861225506E+02   0.184930749044E+02
 TEMPERATURE [K]              =                   21225.785            17302.650
 *******************************************************************************


 ENERGY| Total FORCE_EVAL ( FIST ) energy (a.u.):            -22.890655260932444


 *******************************************************************************
 ENSEMBLE TYPE                =                                              NVT
 STEP NUMBER                  =                                               89
 TIME [fs]                    =                                        89.000000
 CONSERVED QUANTITY [hartree] =                               0.108491935979E+01

                                              INSTANTANEOUS             AVERAGES
 CPU TIME [s]                 =                        0.04                 0.09
 ENERGY DRIFT PER ATOM [K]    =         -0.266825278711E+02  -0.286674376603E+02
 POTENTIAL ENERGY[hartree]    =         -0.228906552609E+02  -0.180017874325E+02
 KINETIC ENERGY [hartree]     =          0.226706021099E+02   0.185400134124E+02
 TEMPERATURE [K]              =                   21211.263            17346.567
 *******************************************************************************


 ENERGY| Total FORCE_EVAL ( FIST ) energy (a.u.):            -22.878857745335576


 *******************************************************************************
 ENSEMBLE TYPE                =                                              NVT
 STEP NUMBER                  =                                               90
 TIME [fs]                    =                                        90.000000
 CONSERVED QUANTITY [hartree] =                               0.108464529201E+01

                                              INSTANTANEOUS             AVERAGES
 CPU TIME [s]                 =                        0.38                 0.09
 ENERGY DRIFT PER ATOM [K]    =         -0.270637774595E+02  -0.286496192136E+02
 POTENTIAL ENERGY[hartree]    =         -0.228788577453E+02  -0.180559771027E+02
 KINETIC ENERGY [hartree]     =          0.226408759046E+02   0.185855785512E+02
 TEMPERATURE [K]              =                   21183.451            17389.199
 *******************************************************************************


 ENERGY| Total FORCE_EVAL ( FIST ) energy (a.u.):            -22.855496022108866


 *******************************************************************************
 ENSEMBLE TYPE                =                                              NVT
 STEP NUMBER                  =                                               91
 TIME [fs]                    =                                        91.000000
 CONSERVED QUANTITY [hartree] =                               0.108494140900E+01

                                              INSTANTANEOUS             AVERAGES
 CPU TIME [s]                 =                        0.05                 0.09
 ENERGY DRIFT PER ATOM [K]    =         -0.266518557050E+02  -0.286276657685E+02
 POTENTIAL ENERGY[hartree]    =         -0.228554960221E+02  -0.181087190688E+02
 KINETIC ENERGY [hartree]     =          0.226099107823E+02   0.186298019823E+02
 TEMPERATURE [K]              =                   21154.479            17430.575
 *******************************************************************************


 ENERGY| Total FORCE_EVAL ( FIST ) energy (a.u.):            -22.831438934623005


 *******************************************************************************
 ENSEMBLE TYPE                =                                              NVT
 STEP NUMBER                  =                                               92
 TIME [fs]                    =                                        92.000000
 CONSERVED QUANTITY [hartree] =                               0.108427451074E+01

                                              INSTANTANEOUS             AVERAGES
 CPU TIME [s]                 =                        0.04                 0.09
 ENERGY DRIFT PER ATOM [K]    =         -0.275795630416E+02  -0.286162733475E+02
 POTENTIAL ENERGY[hartree]    =         -0.228314389346E+02  -0.181600529804E+02
 KINETIC ENERGY [hartree]     =          0.225750457230E+02   0.186726850664E+02
 TEMPERATURE [K]              =                   21121.858            17470.698
 *******************************************************************************


 ENERGY| Total FORCE_EVAL ( FIST ) energy (a.u.):            -22.810146730116653


 *******************************************************************************
 ENSEMBLE TYPE                =                                              NVT
 STEP NUMBER                  =                                               93
 TIME [fs]                    =                                        93.000000
 CONSERVED QUANTITY [hartree] =                               0.108451467218E+01

                                              INSTANTANEOUS             AVERAGES
 CPU TIME [s]                 =                        0.05                 0.09
 ENERGY DRIFT PER ATOM [K]    =         -0.272454797960E+02  -0.286015336319E+02
 POTENTIAL ENERGY[hartree]    =         -0.228101467301E+02  -0.182100539885E+02
 KINETIC ENERGY [hartree]     =          0.225379977837E+02   0.187142475688E+02
 TEMPERATURE [K]              =                   21087.195            17509.585
 *******************************************************************************


 ENERGY| Total FORCE_EVAL ( FIST ) energy (a.u.):            -22.794524181583991


 *******************************************************************************
 ENSEMBLE TYPE                =                                              NVT
 STEP NUMBER                  =                                               94
 TIME [fs]                    =                                        94.000000
 CONSERVED QUANTITY [hartree] =                               0.108442029816E+01

                                              INSTANTANEOUS             AVERAGES
 CPU TIME [s]                 =                        0.05                 0.09
 ENERGY DRIFT PER ATOM [K]    =         -0.273767614046E+02  -0.285885041402E+02
 POTENTIAL ENERGY[hartree]    =         -0.227945241816E+02  -0.182588249480E+02
 KINETIC ENERGY [hartree]     =          0.225021076772E+02   0.187545439529E+02
 TEMPERATURE [K]              =                   21053.615            17547.287
 *******************************************************************************


 ENERGY| Total FORCE_EVAL ( FIST ) energy (a.u.):            -22.780689511039711


 *******************************************************************************
 ENSEMBLE TYPE                =                                              NVT
 STEP NUMBER                  =                                               95
 TIME [fs]                    =                                        95.000000
 CONSERVED QUANTITY [hartree] =                               0.108427554946E+01

                                              INSTANTANEOUS             AVERAGES
 CPU TIME [s]                 =                        0.42                 0.10
 ENERGY DRIFT PER ATOM [K]    =         -0.275781180998E+02  -0.285778684976E+02
 POTENTIAL ENERGY[hartree]    =         -0.227806895110E+02  -0.183064235223E+02
 KINETIC ENERGY [hartree]     =          0.224780616404E+02   0.187937388759E+02
 TEMPERATURE [K]              =                   21031.117            17583.959
 *******************************************************************************


 ENERGY| Total FORCE_EVAL ( FIST ) energy (a.u.):            -22.762679814620522


 *******************************************************************************
 ENSEMBLE TYPE                =                                              NVT
 STEP NUMBER                  =                                               96
 TIME [fs]                    =                                        96.000000
 CONSERVED QUANTITY [hartree] =                               0.108456253337E+01

                                              INSTANTANEOUS             AVERAGES
 CPU TIME [s]                 =                        0.05                 0.09
 ENERGY DRIFT PER ATOM [K]    =         -0.271789011668E+02  -0.285632959213E+02
 POTENTIAL ENERGY[hartree]    =         -0.227626798146E+02  -0.183528428587E+02
 KINETIC ENERGY [hartree]     =          0.224418415053E+02   0.188317399450E+02
 TEMPERATURE [K]              =                   20997.228            17619.514
 *******************************************************************************


 ENERGY| Total FORCE_EVAL ( FIST ) energy (a.u.):            -22.741723954046073


 *******************************************************************************
 ENSEMBLE TYPE                =                                              NVT
 STEP NUMBER                  =                                               97
 TIME [fs]                    =                                        97.000000
 CONSERVED QUANTITY [hartree] =                               0.108546027409E+01

                                              INSTANTANEOUS             AVERAGES
 CPU TIME [s]                 =                        0.04                 0.09
 ENERGY DRIFT PER ATOM [K]    =         -0.259300740265E+02  -0.285361493038E+02
 POTENTIAL ENERGY[hartree]    =         -0.227417239540E+02  -0.183980890556E+02
 KINETIC ENERGY [hartree]     =          0.224164974598E+02   0.188686962080E+02
 TEMPERATURE [K]              =                   20973.516            17654.092
 *******************************************************************************


 ENERGY| Total FORCE_EVAL ( FIST ) energy (a.u.):            -22.727704350102087


 *******************************************************************************
 ENSEMBLE TYPE                =                                              NVT
 STEP NUMBER                  =                                               98
 TIME [fs]                    =                                        98.000000
 CONSERVED QUANTITY [hartree] =                               0.108487629495E+01

                                              INSTANTANEOUS             AVERAGES
 CPU TIME [s]                 =                        0.04                 0.09
 ENERGY DRIFT PER ATOM [K]    =         -0.267424344188E+02  -0.285178460907E+02
 POTENTIAL ENERGY[hartree]    =         -0.227277043501E+02  -0.184422688035E+02
 KINETIC ENERGY [hartree]     =          0.223836500379E+02   0.189045630838E+02
 TEMPERATURE [K]              =                   20942.783            17687.650
 *******************************************************************************


 ENERGY| Total FORCE_EVAL ( FIST ) energy (a.u.):            -22.724408291760383


 *******************************************************************************
 ENSEMBLE TYPE                =                                              NVT
 STEP NUMBER                  =                                               99
 TIME [fs]                    =                                        99.000000
 CONSERVED QUANTITY [hartree] =                               0.108486378604E+01

                                              INSTANTANEOUS             AVERAGES
 CPU TIME [s]                 =                        0.05                 0.09
 ENERGY DRIFT PER ATOM [K]    =         -0.267598352836E+02  -0.285000884058E+02
 POTENTIAL ENERGY[hartree]    =         -0.227244082918E+02  -0.184855227377E+02
 KINETIC ENERGY [hartree]     =          0.223666739062E+02   0.189395339002E+02
 TEMPERATURE [K]              =                   20926.899            17720.369
 *******************************************************************************


 ENERGY| Total FORCE_EVAL ( FIST ) energy (a.u.):            -22.732281335662357


 *******************************************************************************
 ENSEMBLE TYPE                =                                              NVT
 STEP NUMBER                  =                                              100
 TIME [fs]                    =                                       100.000000
 CONSERVED QUANTITY [hartree] =                               0.108548797003E+01

                                              INSTANTANEOUS             AVERAGES
 CPU TIME [s]                 =                        0.05                 0.09
 ENERGY DRIFT PER ATOM [K]    =         -0.258915468220E+02  -0.284740029899E+02
 POTENTIAL ENERGY[hartree]    =         -0.227322813357E+02  -0.185279903237E+02
 KINETIC ENERGY [hartree]     =          0.223556906288E+02   0.189736954675E+02
 TEMPERATURE [K]              =                   20916.623            17752.332
 *******************************************************************************


 -------------------------------------------------------------------------------
 -                                                                             -
 -                                DBCSR STATISTICS                             -
 -                                                                             -
 -------------------------------------------------------------------------------
 COUNTER                                    TOTAL       BLAS       SMM       ACC
 flops inhomo. stacks                           0       0.0%      0.0%      0.0%
 flops total                         0.000000E+00       0.0%      0.0%      0.0%
 flops max/rank                      0.000000E+00       0.0%      0.0%      0.0%
 matmuls inhomo. stacks                         0       0.0%      0.0%      0.0%
 matmuls total                                  0       0.0%      0.0%      0.0%
 number of processed stacks                     0       0.0%      0.0%      0.0%
 average stack size                                     0.0       0.0       0.0
 marketing flops                     0.000000E+00
 -------------------------------------------------------------------------------

 MEMORY| Estimated peak process memory [MiB]                                   0

 -------------------------------------------------------------------------------
 -                                                                             -
 -                           R E F E R E N C E S                               -
 -                                                                             -
 -------------------------------------------------------------------------------
 
 CP2K version 6.1, the CP2K developers group (2018).
 CP2K is freely available from https://www.cp2k.org/ .

 Schuett, Ole; Messmer, Peter; Hutter, Juerg; VandeVondele, Joost. 
 Electronic Structure Calculations on Graphics Processing Units, John Wiley & Sons, Ltd, 173-190 (2016). 
 GPU-Accelerated Sparse Matrix-Matrix Multiplication for Linear Scaling Density Functional Theory.
 http://dx.doi.org/10.1002/9781118670712.ch8


 Borstnik, U; VandeVondele, J; Weber, V; Hutter, J. 
 PARALLEL COMPUTING, 40 (5-6), 47-58 (2014). 
 Sparse matrix multiplication: The distributed block-compressed sparse
 row library.
 http://dx.doi.org/10.1016/j.parco.2014.03.012


 Hutter, J; Iannuzzi, M; Schiffmann, F; VandeVondele, J. 
 WILEY INTERDISCIPLINARY REVIEWS-COMPUTATIONAL MOLECULAR SCIENCE, 4 (1), 15-25 (2014). 
 CP2K: atomistic simulations of condensed matter systems.
 http://dx.doi.org/10.1002/wcms.1159


 Bussi, G; Donadio, D; Parrinello, M. 
 JOURNAL OF CHEMICAL PHYSICS, 126 (1), 014101 (2007). 
 Canonical sampling through velocity rescaling.
 http://dx.doi.org/10.1063/1.2408420


 Frigo, M; Johnson, SG. 
 PROCEEDINGS OF THE IEEE, 93 (2), 216-231 (2005). 
 The design and implementation of FFTW3.
 http://dx.doi.org/10.1109/JPROC.2004.840301


 -------------------------------------------------------------------------------
 -                                                                             -
 -                                T I M I N G                                  -
 -                                                                             -
 -------------------------------------------------------------------------------
 SUBROUTINE                       CALLS  ASD         SELF TIME        TOTAL TIME
                                MAXIMUM       AVERAGE  MAXIMUM  AVERAGE  MAXIMUM
 CP2K                                 1  1.0    0.005    0.005    9.368    9.368
 qs_mol_dyn_low                       1  2.0    0.015    0.015    9.328    9.328
 fist_calc_energy_force             101  4.0    0.007    0.007    8.106    8.106
 velocity_verlet                    100  3.0    0.034    0.034    7.623    7.623
 list_control                       101  5.0    0.007    0.007    5.132    5.132
 build_fist_neighbor_lists           14  5.9    0.001    0.001    5.125    5.125
 build_neighbor_lists                14  6.9    5.108    5.108    5.111    5.111
 force_nonbond                      101  5.0    2.956    2.956    2.956    2.956
 md_output                          100  3.0    0.001    0.001    1.103    1.103
 md_write_output                    101  4.0    0.813    0.813    1.037    1.037
 write_trajectory                   404  5.0    0.067    0.067    0.222    0.222
 -------------------------------------------------------------------------------

 The number of warnings for this run is : 4
 
 -------------------------------------------------------------------------------
  **** **** ******  **  PROGRAM ENDED AT                 2020-04-23 18:02:49.935
 ***** ** ***  *** **   PROGRAM RAN ON                         bass-macbook.home
 **    ****   ******    PROGRAM RAN BY                                  bvanbeek
 ***** **    ** ** **   PROGRAM PROCESS ID                                 96213
  **** **  *******  **  PROGRAM STOPPED IN /Users/bvanbeek/Documents/GitHub/auto
                                           -FOX/FOX/examples/private/MM_MD_workd
                                           ir/md.026
