     227
 i =        0, time =        0.000, E =        19.0548904811
 Cd        -8.6216924880        0.4810107428        3.4775887729
 Cd        -5.8723589632       -0.2566559957        7.1151373767
 Cd        -8.4076147924       -2.1531404527        0.3867588804
 Cd        -6.8957642261       -3.2896665849        3.9600318291
 Cd        -3.6930098048       -3.6992689615        7.3819491709
 Cd        -6.4429261463       -6.2347087238        0.4622469067
 Cd        -4.3123952394       -6.8285875372        3.9039095072
 Cd        -6.1141073353        3.8626235599        2.9066844924
 Cd        -3.6048790416        2.8797284733        6.5917986711
 Cd        -6.7531255596        1.1841266196       -0.3182182747
 Cd        -4.0437606329        0.0729837467        3.0511954168
 Cd        -1.7753257667       -0.3121054857        6.8316599018
 Cd        -6.3661028473       -1.4630135273       -3.4383357626
 Cd        -4.3602814436       -3.1214810613       -0.1759283953
 Cd        -2.2424276819       -3.6242998489        3.6335413818
 Cd         0.1757294635       -3.9625201566        7.0364714760
 Cd        -4.2692200317       -5.9860442556       -3.0005266361
 Cd        -2.2482225396       -6.7972628816        0.6786391664
 Cd         0.0669003827       -7.3030327295        3.8545421700
 Cd        -4.0792754193        7.4105475565        2.4175118797
 Cd        -1.6116442377        6.4880648240        6.2478272306
 Cd        -4.3308002626        4.8127262164       -0.6762739309
 Cd        -1.8326132452        3.6694977750        3.1598212265
 Cd         0.4939817277        3.1637060931        6.7202662426
 Cd        -4.5980154021        1.9988297698       -4.0880170010
 Cd        -2.1651194586        1.0165564496       -0.4536921834
 Cd         0.1376109507       -0.0659106884        3.1336818174
 Cd         2.6419074521       -0.6636939286        6.8958319365
 Cd        -4.1515129292       -0.5348426091       -6.9620217917
 Cd        -2.2012490343       -1.8491984656       -3.4894107829
 Cd         0.0359311218       -2.8494155653       -0.0264680683
 Cd         2.4407298775       -3.8224684908        3.5289587884
 Cd         4.5907434619       -4.2169180472        6.5928471603
 Cd        -2.6321953796       -4.5685798778       -6.0773989300
 Cd        -0.3638438279       -6.1221236347       -3.0620735359
 Cd         1.9882729153       -6.8506852632       -0.0376753302
 Cd         4.3604701588       -7.5063202656        3.0981086138
 Cd        -2.4313710890        8.2839908015       -1.2010761441
 Cd         0.1210964618        6.7915494583        2.0748938605
 Cd         2.2602783261        6.3879934074        5.9824457591
 Cd        -2.2743307721        5.5403016700       -4.1096429978
 Cd         0.1552258413        4.6164378819       -0.9814446932
 Cd         2.6173372932        3.7540356816        2.4616712460
 Cd         4.3934694910        2.5024270436        5.6448470259
 Cd        -2.3839877703        3.0961459608       -7.5397423510
 Cd        -0.1308699873        1.7716472388       -4.3458913396
 Cd         2.1522040622        0.8595996928       -0.9600505658
 Cd         4.3027041934       -0.4425155449        2.5248589789
 Cd         6.4943132815       -0.6514444341        6.0110723312
 Cd         0.4032906214       -0.5920449882       -7.0625722312
 Cd         2.1504065746       -1.8410095193       -3.9631978812
 Cd         4.1282053355       -2.9764966895       -0.5499119195
 Cd         6.9189885741       -3.8001688729        2.8840486736
 Cd         1.0693858855       -4.7693596381       -6.7909688629
 Cd         3.6529341800       -5.7620820022       -3.6150795142
 Cd         5.7341856059       -6.5625995016       -0.3323817960
 Cd         2.4532379782        8.1225833618       -1.1556872380
 Cd         4.4025673150        7.2904811152        1.7928276254
 Cd         2.3800547108        5.2453457502       -4.8107637235
 Cd         4.8184663347        4.7191125514       -1.4277792117
 Cd         6.7589411702        3.8390778732        2.0295448973
 Cd         2.6210634084        2.7844913241       -7.7035228004
 Cd         4.8495943395        1.7843685348       -4.5225056138
 Cd         6.7261500983        1.0662237140       -0.9642295531
 Cd         8.8881450478        0.4141445330        2.4369093904
 Cd         4.3615782352       -0.9213178924       -7.7328888960
 Cd         6.7438649008       -1.9767569930       -4.2031112584
 Cd         8.5272445020       -2.6218905711       -0.2551455218
 Se        -9.0557725106        0.2424574140        0.9180313808
 Se        -6.3745872764       -0.6570220647        4.4225742627
 Se        -3.9358548519       -1.3506397678        8.2925868769
 Se        -6.5830028390       -3.7408669090        1.3890860046
 Se        -4.5802302415       -4.2716541219        4.8585926421
 Se        -4.6110671623       -7.7792240778        1.5343213278
 Se        -6.6407812351        3.9866809498        0.4586064126
 Se        -4.0705866514        2.6241591830        3.9150270775
 Se        -1.6315747320        2.0143859544        7.9219454430
 Se        -6.7106235468        0.9827493806       -3.1628202938
 Se        -4.4077684895       -0.2106461950        0.3970531668
 Se        -2.0534879979       -1.1190641497        4.2604482105
 Se         0.4069246601       -1.5676855049        8.0617057342
 Se        -4.4126107232       -3.1307459794       -2.8028288282
 Se        -2.2371864822       -4.0884616040        0.9473336128
 Se         0.1541797359       -4.8148952714        4.4843326207
 Se        -2.4147106009       -7.4199706225       -2.0529393442
 Se        -0.0662571417       -7.8800811154        1.3078284855
 Se        -4.5519687636        7.5920037884       -0.0122560791
 Se        -1.8482840651        6.3647212661        3.5390459072
 Se         0.4006735392        5.8241498358        7.5878867146
 Se        -4.4655945585        4.5529209660       -3.3484418515
 Se        -2.0798083538        3.7153034916        0.3451575142
 Se         0.4973892782        2.6967113851        3.7286137790
 Se         2.7724753484        1.9958260876        7.6298945277
 Se        -4.6126224962        2.0736182894       -6.9031574659
 Se        -2.2770211290        0.8531533747       -3.1284312065
 Se         0.0138865169       -0.1636477002        0.3858468104
 Se         2.3115473387       -1.3198431962        4.0017354986
 Se         4.8624545925       -1.8855864388        7.7371297607
 Se        -2.0700877949       -1.9675257511       -6.4603372509
 Se        -0.0447057629       -3.1582708631       -2.8090856920
 Se         2.2343306950       -4.2299664240        0.7817840723
 Se         4.8342987615       -4.9516929708        4.0974643468
 Se        -0.7556003326       -6.2829108386       -5.8406699955
 Se         1.9243057511       -7.4784768035       -2.6074198353
 Se         4.2543989663       -8.3809591814        0.7363809319
 Se         0.0386925703        7.3677075300       -0.4939635450
 Se         2.3791568525        6.5289221229        3.1400383851
 Se         0.0465974103        4.4270318221       -3.5936563407
 Se         2.5167269427        3.6273521599       -0.0581806204
 Se         4.7705604635        2.4670139639        3.1233546104
 Se         0.0435933033        1.9323944164       -6.9695738842
 Se         2.2733127965        0.7623703678       -3.6584263160
 Se         4.3816175435       -0.2841549253       -0.0177063702
 Se         6.9670500347       -1.1290204494        3.5565582379
 Se         2.2410869402       -2.2702007814       -6.6798205275
 Se         4.3723294721       -3.1971869108       -3.2130677403
 Se         6.4331938555       -4.1098532443        0.4136420186
 Se         4.8503033307        7.5509093293       -0.7463548497
 Se         4.8776288797        4.5477652435       -4.0091414448
 Se         7.0830986217        3.5950723552       -0.6434567968
 Se         4.7810064642        1.5273410534       -7.5566303287
 Se         6.9188050062        0.6130038217       -3.7081238627
 Se         9.1066871843       -0.0609359671       -0.0919647969
  C         6.9955771113       -6.9586634775       -2.8583426301
  H         7.7780160969       -7.1271873265       -3.6573399650
  O         5.8389952916       -6.4652991204       -3.1445809228
  O         7.2920676004       -7.2683568805       -1.6893132711
  C         3.3939431960       -6.2668607509       -6.9513074648
  H         4.3245440932       -6.8689211647       -7.0591687882
  O         3.0202466073       -5.7860511295       -5.7843136273
  O         2.6220129789       -6.1746538788       -7.9242101403
  C         6.3116555909       -2.9071154185       -7.4921130606
  H         7.0978863851       -3.7212906458       -7.4285512081
  O         6.0096715894       -2.3219711192       -6.3505932827
  O         5.9403243477       -2.4750431756       -8.6116316973
  C         8.9837561036       -3.3697375837       -3.4349055328
  H         9.9249943929       -3.8864043165       -3.1840078659
  O         8.5659407989       -3.4209184445       -4.6048832464
  O         8.2714489672       -2.6971151254       -2.5207012617
  C         9.7902109758       -4.6282247391        2.1768529346
  H        10.6284324694       -5.3337138149        2.3552924638
  O         9.7484501532       -4.1824896055        0.9942458601
  O         9.0219926648       -4.5705851174        3.1873629795
  C        -2.8252708508       -8.8894178348        5.3653894160
  H        -2.3915771747       -9.8892286280        5.4446685031
  O        -1.9808601030       -7.9304545651        5.0436955975
  O        -4.0908415257       -8.7280019527        5.4030844137
  C         3.0047406823       -8.6887063298        5.2919739424
  H         2.6853413808       -9.0312323512        6.2714246943
  O         1.9985977812       -8.3553887881        4.5599054594
  O         4.2197147413       -8.6069092298        4.9235206312
  C         2.8732291572       -5.7090624943        8.2322507888
  H         2.4095730423       -6.3582442170        8.9295273658
  O         2.2236878889       -4.8031284854        7.6183804854
  O         4.1525405945       -5.8988692439        8.1468427445
  C        -2.5324052264       -5.9090323801        8.5168983878
  H        -2.0058427467       -6.7599986745        9.0204193621
  O        -1.9189018681       -5.2527647032        7.5983339134
  O        -3.6521974131       -5.4981014961        8.8936623702
  C        -6.8661340661        2.3082426882        7.3884767521
  H        -7.2433530482        3.2983326111        7.3747512577
  O        -5.6189307919        2.1553364867        7.5292857639
  O        -7.6694328727        1.3672322100        7.2032576312
  C        -4.1128935570        6.2776012356        7.2258109093
  H        -5.2184092536        6.2949225170        7.4003980339
  O        -3.5215502414        5.2331222329        6.7794929280
  O        -3.5956064510        7.4679880815        7.3184340370
  C        -6.2584500423        7.1467273309        4.0778865765
  H        -7.2018864753        7.1620259062        4.6862261037
  O        -5.8042352338        6.0508881806        3.6277903665
  O        -5.6141473350        8.2227071687        3.8530055117
  C        -9.2670155991        2.9624473135        4.4549609073
  H        -9.7760873251        3.8307467380        4.7753730710
  O        -8.0580447847        3.0137717908        4.1153681461
  O       -10.0869615960        1.9755230626        4.3964141791
  C        -9.5997958208       -3.5202239981        4.2555074891
  H       -10.6284324694       -3.6062117458        4.7363993397
  O        -9.3836198173       -2.7271085544        3.2939504316
  O        -8.6749593009       -4.3055307223        4.7674147240
  C        -5.4063829718       -6.0836320759       -6.1576393485
  H        -6.0390997038       -6.5934387315       -6.8768176703
  O        -5.3157147411       -6.5042627408       -4.9638375967
  O        -4.7997118332       -5.0931497246       -6.6842330004
  C        -7.4812021438       -7.2683192216       -1.8337008205
  H        -7.8430239833       -7.7214409635       -2.7403108931
  O        -6.3847231004       -6.5596142310       -1.8855223803
  O        -8.0870004405       -7.4369608581       -0.7449951352
  C        -9.2637717352       -3.4248031045       -2.1287629167
  H        -9.5435102925       -4.0726156799       -2.9624854104
  O        -8.1685743898       -2.7562864935       -2.2769679175
  O        -9.8293124780       -3.4993302663       -1.0042472880
  C        -6.7198117275       -1.5155721631       -7.0057360974
  H        -7.7266400310       -1.9701098143       -7.1795729881
  O        -6.3208037730       -1.2812141421       -5.7891801227
  O        -6.0546670581       -1.2647410752       -8.0219575549
  C        -1.9610306020        5.6962737072       -7.4797868569
  H        -1.8068881661        6.7616764611       -7.4798700689
  O        -2.4613788677        5.1953402046       -6.4147373301
  O        -1.7592038190        5.0404242691       -8.5376948407
  C        -1.7153677193        9.0065729983       -3.7807068554
  H        -1.3518565997        9.2891789052       -4.8285272378
  O        -1.7735635219        7.7204009534       -3.5311974415
  O        -1.9589811591        9.8892286280       -2.9296575010
  C         2.5176986766        8.6527359013       -4.1276241396
  H         2.7356319561        9.0838176512       -5.0545617483
  O         2.0941304229        7.4607563111       -4.0382054964
  O         2.6632020791        9.4136986823       -3.1567247192
  C         1.7405814703        5.3615037054       -8.2026998584
  H         1.4592813282        6.4433815072       -8.3446733349
  O         2.2712544771        5.0744229803       -7.0359036782
  O         1.5374971892        4.4786315137       -9.0204193621
  C         9.4791869119        2.6134878200        3.9079418032
  H         9.6264681644        3.4611325178        4.5867541287
  O         8.5294682966        2.7206869475        3.0468687327
  O        10.1884170796        1.5361363159        4.0354546634
  C         6.6320899766        7.0427804887        3.3240585285
  H         7.5183451153        7.1103565644        4.0025867163
  O         6.4921259472        6.1579139584        2.4473334656
  O         5.8014508194        7.8970951585        3.5804466065
  C         4.7468288793        5.8510846562        6.9391041765
  H         5.6837062732        5.7110173508        7.4566454645
  O         4.3315486404        4.9881730889        6.0840680113
  O         4.1390624477        6.9214380767        7.1338855679
  C         7.5642974957        1.7429307679        7.1823006621
  H         8.1116275708        2.6102062210        7.6466333920
  O         6.7423080014        2.0330978891        6.2208765696
  O         7.8434776238        0.5800715711        7.5931108165
     227
 i =        1, time =        1.000, E =        18.8380259877
 Cd        -8.6192463008        0.4794448942        3.4774918077
 Cd        -5.8722640464       -0.2570144747        7.1140951951
 Cd        -8.4082629747       -2.1545598627        0.3849403213
 Cd        -6.8924502184       -3.2914256962        3.9611546550
 Cd        -3.6902388991       -3.7008003109        7.3820169327
 Cd        -6.4421844321       -6.2356289750        0.4643662636
 Cd        -4.3122538025       -6.8294084555        3.9057809292
 Cd        -6.1166350809        3.8608778248        2.9062548347
 Cd        -3.6070676846        2.8814083265        6.5899856808
 Cd        -6.7533878427        1.1873327232       -0.3192561927
 Cd        -4.0446745965        0.0755102716        3.0500239401
 Cd        -1.7741991836       -0.3130490426        6.8333461580
 Cd        -6.3662453594       -1.4634485041       -3.4401610056
 Cd        -4.3617969082       -3.1215180141       -0.1744213521
 Cd        -2.2425334581       -3.6221106359        3.6335352930
 Cd         0.1782081828       -3.9618073736        7.0369348906
 Cd        -4.2697377776       -5.9875632743       -2.9988764130
 Cd        -2.2493648338       -6.7962689059        0.6789280355
 Cd         0.0675333369       -7.3034517383        3.8544460265
 Cd        -4.0797336657        7.4118211144        2.4189846273
 Cd        -1.6112611281        6.4884565355        6.2504831617
 Cd        -4.3324762599        4.8129936495       -0.6768682860
 Cd        -1.8303802145        3.6698457041        3.1586901049
 Cd         0.4898268688        3.1634785342        6.7201643809
 Cd        -4.5989176123        2.0001851120       -4.0894882188
 Cd        -2.1630890015        1.0184679170       -0.4516971895
 Cd         0.1383582725       -0.0678761408        3.1343124956
 Cd         2.6424231828       -0.6634332828        6.8955046530
 Cd        -4.1541200493       -0.5350343466       -6.9611036360
 Cd        -2.2032687052       -1.8488209109       -3.4903268396
 Cd         0.0357478692       -2.8475159983       -0.0251280572
 Cd         2.4398635570       -3.8221462868        3.5302816947
 Cd         4.5938538624       -4.2153012955        6.5947163403
 Cd        -2.6320595237       -4.5696528688       -6.0784220192
 Cd        -0.3608065505       -6.1205617116       -3.0632169679
 Cd         1.9866542027       -6.8521850553       -0.0373092033
 Cd         4.3579883276       -7.5040769172        3.0970692027
 Cd        -2.4315513428        8.2870381393       -1.2006153350
 Cd         0.1211376921        6.7913831419        2.0740413178
 Cd         2.2582603802        6.3881422251        5.9817097192
 Cd        -2.2736777454        5.5408876945       -4.1123176592
 Cd         0.1544281796        4.6149055712       -0.9819947372
 Cd         2.6163034648        3.7538379335        2.4617331532
 Cd         4.3940305913        2.5015785913        5.6450893661
 Cd        -2.3859651499        3.0934295122       -7.5401367456
 Cd        -0.1312149088        1.7709713863       -4.3472790897
 Cd         2.1530093771        0.8602961150       -0.9631765609
 Cd         4.3038196105       -0.4401596055        2.5254154808
 Cd         6.4919906460       -0.6515285397        6.0109935377
 Cd         0.4036448567       -0.5928954595       -7.0624079001
 Cd         2.1511055603       -1.8413912156       -3.9632905047
 Cd         4.1300623570       -2.9778459433       -0.5482651487
 Cd         6.9197772133       -3.7966995083        2.8862029359
 Cd         1.0696697955       -4.7685641050       -6.7910273254
 Cd         3.6507281474       -5.7624131348       -3.6174222323
 Cd         5.7324783354       -6.5635455499       -0.3325575042
 Cd         2.4544397094        8.1226604046       -1.1567389680
 Cd         4.4056078638        7.2900244429        1.7946994747
 Cd         2.3803916397        5.2451265127       -4.8082803752
 Cd         4.8185587824        4.7186957390       -1.4278530365
 Cd         6.7583136242        3.8403843885        2.0310743679
 Cd         2.6210665656        2.7831577988       -7.7034423782
 Cd         4.8484342032        1.7850690772       -4.5235692034
 Cd         6.7274525087        1.0643780508       -0.9630936745
 Cd         8.8868035301        0.4155050883        2.4350959194
 Cd         4.3615735901       -0.9235387372       -7.7311319329
 Cd         6.7425711864       -1.9757059911       -4.2010927119
 Cd         8.5293043091       -2.6208093364       -0.2525818128
 Se        -9.0560036903        0.2441695662        0.9176619974
 Se        -6.3729762994       -0.6563012727        4.4185781258
 Se        -3.9339777004       -1.3485982026        8.2984974014
 Se        -6.5829886498       -3.7429104087        1.3875665220
 Se        -4.5791129055       -4.2756302974        4.8604401036
 Se        -4.6125240815       -7.7782161176        1.5324351868
 Se        -6.6435621415        3.9856217932        0.4562232545
 Se        -4.0722459721        2.6206890528        3.9149643967
 Se        -1.6326146514        2.0125101946        7.9270023644
 Se        -6.7138894174        0.9842567119       -3.1648124536
 Se        -4.4075297903       -0.2114607787        0.3946713457
 Se        -2.0527144935       -1.1149132003        4.2598680617
 Se         0.4058481513       -1.5659881359        8.0662771509
 Se        -4.4163842817       -3.1308948635       -2.8053639338
 Se        -2.2368439119       -4.0917153944        0.9473335408
 Se         0.1526805206       -4.8124616839        4.4861506146
 Se        -2.4163912863       -7.4223231264       -2.0536710251
 Se        -0.0660494755       -7.8808855789        1.3096659255
 Se        -4.5540217395        7.5952275807       -0.0139104378
 Se        -1.8480579267        6.3637246861        3.5412864136
 Se         0.4039392106        5.8259119242        7.5882725604
 Se        -4.4676854542        4.5544353648       -3.3490034890
 Se        -2.0809081031        3.7150771240        0.3431760973
 Se         0.4987084483        2.6964560278        3.7294863668
 Se         2.7718914077        1.9959947843        7.6275312220
 Se        -4.6148704550        2.0750349499       -6.9051922916
 Se        -2.2792566925        0.8534268327       -3.1262930942
 Se         0.0149999991       -0.1633574818        0.3856245272
 Se         2.3130697420       -1.3179635662        4.0000573620
 Se         4.8636659872       -1.8841567219        7.7368139884
 Se        -2.0694229019       -1.9666262445       -6.4606877888
 Se        -0.0440649022       -3.1606126442       -2.8087508079
 Se         2.2320688457       -4.2318141937        0.7811067326
 Se         4.8364643468       -4.9538774632        4.0968094557
 Se        -0.7552789753       -6.2868514309       -5.8414639316
 Se         1.9250604910       -7.4803727737       -2.6082568342
 Se         4.2591082927       -8.3811527360        0.7355713873
 Se         0.0352652743        7.3691380813       -0.4916652608
 Se         2.3815579480        6.5251826205        3.1439860228
 Se         0.0442071526        4.4288584340       -3.5945646655
 Se         2.5165656611        3.6273489973       -0.0584999854
 Se         4.7734859209        2.4654560445        3.1249217203
 Se         0.0453454618        1.9310405601       -6.9716420069
 Se         2.2764428713        0.7654553213       -3.6572205202
 Se         4.3772397411       -0.2853046663       -0.0188853451
 Se         6.9679680121       -1.1296959825        3.5574995075
 Se         2.2380110924       -2.2693487855       -6.6842428060
 Se         4.3743330281       -3.1974568499       -3.2159948290
 Se         6.4329276616       -4.1119857879        0.4117828274
 Se         4.8537745014        7.5525513699       -0.7466843904
 Se         4.8780316293        4.5493240970       -4.0135727154
 Se         7.0868993938        3.5945880320       -0.6428808946
 Se         4.7837807674        1.5275440030       -7.5556306620
 Se         6.9202980486        0.6111428321       -3.7073470477
 Se         9.1080274426       -0.0622638966       -0.0932447113
  C         6.9966738116       -6.9498152194       -2.8612707015
  H         7.7649322095       -7.1224747738       -3.6684216540
  O         5.8474673250       -6.4688947011       -3.1397139369
  O         7.2947281560       -7.2770188286       -1.6990973982
  C         3.3950768421       -6.2672926198       -6.9491675762
  H         4.3444066225       -6.8936096686       -7.0753272229
  O         3.0194930921       -5.7922042047       -5.7866080239
  O         2.6195779560       -6.1705299300       -7.9253435071
  C         6.3106274651       -2.9078589798       -7.4910277058
  H         7.1299137504       -3.7048862282       -7.4466889051
  O         6.0083726047       -2.3193566492       -6.3515458623
  O         5.9411475842       -2.4759740284       -8.6134550690
  C         8.9774283836       -3.3708857401       -3.4296390453
  H         9.9250180562       -3.8774829974       -3.1826003730
  O         8.5705866707       -3.4167089373       -4.6051209049
  O         8.2732277034       -2.6981820792       -2.5234342468
  C         9.7980557704       -4.6251934954        2.1809906037
  H        10.6408655401       -5.3318691344        2.3887999993
  O         9.7506160152       -4.1827624548        0.9946771341
  O         9.0338658169       -4.5700851808        3.1879563604
  C        -2.8217236038       -8.8884184940        5.3598598612
  H        -2.4154187803       -9.9024293192        5.4343946394
  O        -1.9862178506       -7.9314561510        5.0434233261
  O        -4.0902458127       -8.7290155812        5.4057783134
  C         2.9969166598       -8.6916018160        5.2874298400
  H         2.6967725338       -9.0398269484        6.2934215078
  O         2.0027204591       -8.3598952745        4.5609494909
  O         4.2225516939       -8.6067552874        4.9253408900
  C         2.8792938859       -5.7053283357        8.2324118362
  H         2.3955873073       -6.3773024893        8.9303283437
  O         2.2227380090       -4.8111430053        7.6180021057
  O         4.1491341092       -5.9061141659        8.1559795709
  C        -2.5347084162       -5.9173502195        8.5219829583
  H        -2.0052498086       -6.7390725628        9.0096019785
  O        -1.9203490971       -5.2609328368        7.5992964658
  O        -3.6521635476       -5.5108861744        8.8948110946
  C        -6.8630639368        2.3027091665        7.3891797390
  H        -7.2086193538        3.3071349018        7.3885257928
  O        -5.6243560260        2.1598811224        7.5354913182
  O        -7.6712478218        1.3719406902        7.2004315800
  C        -4.1170028810        6.2827921519        7.2281729389
  H        -5.2418933127        6.2896177269        7.3832000201
  O        -3.5295309250        5.2304620298        6.7751132566
  O        -3.5924940254        7.4680156085        7.3188060895
  C        -6.2567339210        7.1462270145        4.0780995226
  H        -7.2111390447        7.1649409639        4.6689854642
  O        -5.8097044542        6.0509341463        3.6299086290
  O        -5.6166273092        8.2227520265        3.8523902912
  C        -9.2742002024        2.9617455942        4.4604833515
  H        -9.7855372140        3.8838940690        4.7760086716
  O        -8.0604330515        3.0118731885        4.1204827188
  O       -10.0840615737        1.9823234314        4.3941658927
  C        -9.6032660573       -3.5282124936        4.2551588921
  H       -10.5971720209       -3.6001750875        4.7566807035
  O        -9.3848886466       -2.7228171373        3.2947698316
  O        -8.6849234801       -4.3052238378        4.7658821176
  C        -5.4081385326       -6.0792208347       -6.1561805634
  H        -6.0546960796       -6.5859836395       -6.8890942905
  O        -5.3132200012       -6.5051832404       -4.9692685540
  O        -4.8022038170       -5.0936994397       -6.6863700539
  C        -7.4874853070       -7.2705522871       -1.8347976940
  H        -7.8388434959       -7.7173330376       -2.7530342297
  O        -6.3903686468       -6.5558096661       -1.8864034597
  O        -8.0737163857       -7.4423383621       -0.7473244976
  C        -9.2562591620       -3.4270053015       -2.1219697512
  H        -9.5270787848       -4.0663584857       -2.9594189931
  O        -8.1711218072       -2.7562188456       -2.2724731615
  O        -9.8256972182       -3.4953099229       -1.0106668955
  C        -6.7207023428       -1.5101567718       -7.0045870269
  H        -7.7450574417       -1.9674181007       -7.1698505571
  O        -6.3205620105       -1.2789900203       -5.8025121001
  O        -6.0670006282       -1.2651266515       -8.0175843399
  C        -1.9628948999        5.6954872300       -7.4853052587
  H        -1.7770888886        6.7764005651       -7.4923242406
  O        -2.4613231553        5.1889713403       -6.4113459244
  O        -1.7551266350        5.0448239224       -8.5305957600
  C        -1.7168808064        9.0074954887       -3.7839153223
  H        -1.3493405476        9.2660238074       -4.8465614694
  O        -1.7693842640        7.7233825732       -3.5257494975
  O        -1.9633645357        9.8911711073       -2.9425600422
  C         2.5062294955        8.6538758695       -4.1272908427
  H         2.7131102182        9.0638249498       -5.0476060874
  O         2.0943038216        7.4564781817       -4.0300580568
  O         2.6627500939        9.4127304134       -3.1576160013
  C         1.7411443529        5.3672412738       -8.1968558824
  H         1.4358383610        6.4416008070       -8.3632925476
  O         2.2776179658        5.0785121334       -7.0464861085
  O         1.5305216175        4.4855064807       -9.0192438574
  C         9.4768641411        2.6096254455        3.9000046832
  H         9.6131090334        3.4671477718        4.5843902861
  O         8.5308367313        2.7178510549        3.0514572136
  O        10.1903623978        1.5417335586        4.0352963084
  C         6.6326533994        7.0382909853        3.3282089789
  H         7.5082674956        7.1289998248        4.0070788575
  O         6.4957507296        6.1624418829        2.4478007089
  O         5.7977915515        7.9039773551        3.5837603274
  C         4.7447711744        5.8524768259        6.9353849778
  H         5.7085862008        5.7040540943        7.4370666698
  O         4.3300114639        4.9893589548        6.0819233206
  O         4.1501210545        6.9236646055        7.1397491156
  C         7.5603345182        1.7452816278        7.1878677869
  H         8.1158840311        2.6116602203        7.6593692779
  O         6.7478079210        2.0303754722        6.2253170863
  O         7.8449013699        0.5834194536        7.5909123863
     227
 i =        2, time =        2.000, E =        18.2434613179
 Cd        -8.6166495385        0.4775513087        3.4780624118
 Cd        -5.8736511945       -0.2569349981        7.1124564513
 Cd        -8.4090554175       -2.1568383104        0.3825187274
 Cd        -6.8886656537       -3.2924545265        3.9624105358