     227
 i =        0, time =        0.000, E =        85.1352630169
 Cd        -8.6216924880        0.4810107428        3.4775887729
 Cd        -5.8723589632       -0.2566559957        7.1151373767
 Cd        -8.4076147924       -2.1531404527        0.3867588804
 Cd        -6.8957642261       -3.2896665849        3.9600318291
 Cd        -3.6930098048       -3.6992689615        7.3819491709
 Cd        -6.4429261463       -6.2347087238        0.4622469067
 Cd        -4.3123952394       -6.8285875372        3.9039095072
 Cd        -6.1141073353        3.8626235599        2.9066844924
 Cd        -3.6048790416        2.8797284733        6.5917986711
 Cd        -6.7531255596        1.1841266196       -0.3182182747
 Cd        -4.0437606329        0.0729837467        3.0511954168
 Cd        -1.7753257667       -0.3121054857        6.8316599018
 Cd        -6.3661028473       -1.4630135273       -3.4383357626
 Cd        -4.3602814436       -3.1214810613       -0.1759283953
 Cd        -2.2424276819       -3.6242998489        3.6335413818
 Cd         0.1757294635       -3.9625201566        7.0364714760
 Cd        -4.2692200317       -5.9860442556       -3.0005266361
 Cd        -2.2482225396       -6.7972628816        0.6786391664
 Cd         0.0669003827       -7.3030327295        3.8545421700
 Cd        -4.0792754193        7.4105475565        2.4175118797
 Cd        -1.6116442377        6.4880648240        6.2478272306
 Cd        -4.3308002626        4.8127262164       -0.6762739309
 Cd        -1.8326132452        3.6694977750        3.1598212265
 Cd         0.4939817277        3.1637060931        6.7202662426
 Cd        -4.5980154021        1.9988297698       -4.0880170010
 Cd        -2.1651194586        1.0165564496       -0.4536921834
 Cd         0.1376109507       -0.0659106884        3.1336818174
 Cd         2.6419074521       -0.6636939286        6.8958319365
 Cd        -4.1515129292       -0.5348426091       -6.9620217917
 Cd        -2.2012490343       -1.8491984656       -3.4894107829
 Cd         0.0359311218       -2.8494155653       -0.0264680683
 Cd         2.4407298775       -3.8224684908        3.5289587884
 Cd         4.5907434619       -4.2169180472        6.5928471603
 Cd        -2.6321953796       -4.5685798778       -6.0773989300
 Cd        -0.3638438279       -6.1221236347       -3.0620735359
 Cd         1.9882729153       -6.8506852632       -0.0376753302
 Cd         4.3604701588       -7.5063202656        3.0981086138
 Cd        -2.4313710890        8.2839908015       -1.2010761441
 Cd         0.1210964618        6.7915494583        2.0748938605
 Cd         2.2602783261        6.3879934074        5.9824457591
 Cd        -2.2743307721        5.5403016700       -4.1096429978
 Cd         0.1552258413        4.6164378819       -0.9814446932
 Cd         2.6173372932        3.7540356816        2.4616712460
 Cd         4.3934694910        2.5024270436        5.6448470259
 Cd        -2.3839877703        3.0961459608       -7.5397423510
 Cd        -0.1308699873        1.7716472388       -4.3458913396
 Cd         2.1522040622        0.8595996928       -0.9600505658
 Cd         4.3027041934       -0.4425155449        2.5248589789
 Cd         6.4943132815       -0.6514444341        6.0110723312
 Cd         0.4032906214       -0.5920449882       -7.0625722312
 Cd         2.1504065746       -1.8410095193       -3.9631978812
 Cd         4.1282053355       -2.9764966895       -0.5499119195
 Cd         6.9189885741       -3.8001688729        2.8840486736
 Cd         1.0693858855       -4.7693596381       -6.7909688629
 Cd         3.6529341800       -5.7620820022       -3.6150795142
 Cd         5.7341856059       -6.5625995016       -0.3323817960
 Cd         2.4532379782        8.1225833618       -1.1556872380
 Cd         4.4025673150        7.2904811152        1.7928276254
 Cd         2.3800547108        5.2453457502       -4.8107637235
 Cd         4.8184663347        4.7191125514       -1.4277792117
 Cd         6.7589411702        3.8390778732        2.0295448973
 Cd         2.6210634084        2.7844913241       -7.7035228004
 Cd         4.8495943395        1.7843685348       -4.5225056138
 Cd         6.7261500983        1.0662237140       -0.9642295531
 Cd         8.8881450478        0.4141445330        2.4369093904
 Cd         4.3615782352       -0.9213178924       -7.7328888960
 Cd         6.7438649008       -1.9767569930       -4.2031112584
 Cd         8.5272445020       -2.6218905711       -0.2551455218
 Se        -9.0557725106        0.2424574140        0.9180313808
 Se        -6.3745872764       -0.6570220647        4.4225742627
 Se        -3.9358548519       -1.3506397678        8.2925868769
 Se        -6.5830028390       -3.7408669090        1.3890860046
 Se        -4.5802302415       -4.2716541219        4.8585926421
 Se        -4.6110671623       -7.7792240778        1.5343213278
 Se        -6.6407812351        3.9866809498        0.4586064126
 Se        -4.0705866514        2.6241591830        3.9150270775
 Se        -1.6315747320        2.0143859544        7.9219454430
 Se        -6.7106235468        0.9827493806       -3.1628202938
 Se        -4.4077684895       -0.2106461950        0.3970531668
 Se        -2.0534879979       -1.1190641497        4.2604482105
 Se         0.4069246601       -1.5676855049        8.0617057342
 Se        -4.4126107232       -3.1307459794       -2.8028288282
 Se        -2.2371864822       -4.0884616040        0.9473336128
 Se         0.1541797359       -4.8148952714        4.4843326207
 Se        -2.4147106009       -7.4199706225       -2.0529393442
 Se        -0.0662571417       -7.8800811154        1.3078284855
 Se        -4.5519687636        7.5920037884       -0.0122560791
 Se        -1.8482840651        6.3647212661        3.5390459072
 Se         0.4006735392        5.8241498358        7.5878867146
 Se        -4.4655945585        4.5529209660       -3.3484418515
 Se        -2.0798083538        3.7153034916        0.3451575142
 Se         0.4973892782        2.6967113851        3.7286137790
 Se         2.7724753484        1.9958260876        7.6298945277
 Se        -4.6126224962        2.0736182894       -6.9031574659
 Se        -2.2770211290        0.8531533747       -3.1284312065
 Se         0.0138865169       -0.1636477002        0.3858468104
 Se         2.3115473387       -1.3198431962        4.0017354986
 Se         4.8624545925       -1.8855864388        7.7371297607
 Se        -2.0700877949       -1.9675257511       -6.4603372509
 Se        -0.0447057629       -3.1582708631       -2.8090856920
 Se         2.2343306950       -4.2299664240        0.7817840723
 Se         4.8342987615       -4.9516929708        4.0974643468
 Se        -0.7556003326       -6.2829108386       -5.8406699955
 Se         1.9243057511       -7.4784768035       -2.6074198353
 Se         4.2543989663       -8.3809591814        0.7363809319
 Se         0.0386925703        7.3677075300       -0.4939635450
 Se         2.3791568525        6.5289221229        3.1400383851
 Se         0.0465974103        4.4270318221       -3.5936563407
 Se         2.5167269427        3.6273521599       -0.0581806204
 Se         4.7705604635        2.4670139639        3.1233546104
 Se         0.0435933033        1.9323944164       -6.9695738842
 Se         2.2733127965        0.7623703678       -3.6584263160
 Se         4.3816175435       -0.2841549253       -0.0177063702
 Se         6.9670500347       -1.1290204494        3.5565582379
 Se         2.2410869402       -2.2702007814       -6.6798205275
 Se         4.3723294721       -3.1971869108       -3.2130677403
 Se         6.4331938555       -4.1098532443        0.4136420186
 Se         4.8503033307        7.5509093293       -0.7463548497
 Se         4.8776288797        4.5477652435       -4.0091414448
 Se         7.0830986217        3.5950723552       -0.6434567968
 Se         4.7810064642        1.5273410534       -7.5566303287
 Se         6.9188050062        0.6130038217       -3.7081238627
 Se         9.1066871843       -0.0609359671       -0.0919647969
  C         6.9955771113       -6.9586634775       -2.8583426301
  H         7.7780160969       -7.1271873265       -3.6573399650
  O         5.8389952916       -6.4652991204       -3.1445809228
  O         7.2920676004       -7.2683568805       -1.6893132711
  C         3.3939431960       -6.2668607509       -6.9513074648
  H         4.3245440932       -6.8689211647       -7.0591687882
  O         3.0202466073       -5.7860511295       -5.7843136273
  O         2.6220129789       -6.1746538788       -7.9242101403
  C         6.3116555909       -2.9071154185       -7.4921130606
  H         7.0978863851       -3.7212906458       -7.4285512081
  O         6.0096715894       -2.3219711192       -6.3505932827
  O         5.9403243477       -2.4750431756       -8.6116316973
  C         8.9837561036       -3.3697375837       -3.4349055328
  H         9.9249943929       -3.8864043165       -3.1840078659
  O         8.5659407989       -3.4209184445       -4.6048832464
  O         8.2714489672       -2.6971151254       -2.5207012617
  C         9.7902109758       -4.6282247391        2.1768529346
  H        10.6284324694       -5.3337138149        2.3552924638
  O         9.7484501532       -4.1824896055        0.9942458601
  O         9.0219926648       -4.5705851174        3.1873629795
  C        -2.8252708508       -8.8894178348        5.3653894160
  H        -2.3915771747       -9.8892286280        5.4446685031
  O        -1.9808601030       -7.9304545651        5.0436955975
  O        -4.0908415257       -8.7280019527        5.4030844137
  C         3.0047406823       -8.6887063298        5.2919739424
  H         2.6853413808       -9.0312323512        6.2714246943
  O         1.9985977812       -8.3553887881        4.5599054594
  O         4.2197147413       -8.6069092298        4.9235206312
  C         2.8732291572       -5.7090624943        8.2322507888
  H         2.4095730423       -6.3582442170        8.9295273658
  O         2.2236878889       -4.8031284854        7.6183804854
  O         4.1525405945       -5.8988692439        8.1468427445
  C        -2.5324052264       -5.9090323801        8.5168983878
  H        -2.0058427467       -6.7599986745        9.0204193621
  O        -1.9189018681       -5.2527647032        7.5983339134
  O        -3.6521974131       -5.4981014961        8.8936623702
  C        -6.8661340661        2.3082426882        7.3884767521
  H        -7.2433530482        3.2983326111        7.3747512577
  O        -5.6189307919        2.1553364867        7.5292857639
  O        -7.6694328727        1.3672322100        7.2032576312
  C        -4.1128935570        6.2776012356        7.2258109093
  H        -5.2184092536        6.2949225170        7.4003980339
  O        -3.5215502414        5.2331222329        6.7794929280
  O        -3.5956064510        7.4679880815        7.3184340370
  C        -6.2584500423        7.1467273309        4.0778865765
  H        -7.2018864753        7.1620259062        4.6862261037
  O        -5.8042352338        6.0508881806        3.6277903665
  O        -5.6141473350        8.2227071687        3.8530055117
  C        -9.2670155991        2.9624473135        4.4549609073
  H        -9.7760873251        3.8307467380        4.7753730710
  O        -8.0580447847        3.0137717908        4.1153681461
  O       -10.0869615960        1.9755230626        4.3964141791
  C        -9.5997958208       -3.5202239981        4.2555074891
  H       -10.6284324694       -3.6062117458        4.7363993397
  O        -9.3836198173       -2.7271085544        3.2939504316
  O        -8.6749593009       -4.3055307223        4.7674147240
  C        -5.4063829718       -6.0836320759       -6.1576393485
  H        -6.0390997038       -6.5934387315       -6.8768176703
  O        -5.3157147411       -6.5042627408       -4.9638375967
  O        -4.7997118332       -5.0931497246       -6.6842330004
  C        -7.4812021438       -7.2683192216       -1.8337008205
  H        -7.8430239833       -7.7214409635       -2.7403108931
  O        -6.3847231004       -6.5596142310       -1.8855223803
  O        -8.0870004405       -7.4369608581       -0.7449951352
  C        -9.2637717352       -3.4248031045       -2.1287629167
  H        -9.5435102925       -4.0726156799       -2.9624854104
  O        -8.1685743898       -2.7562864935       -2.2769679175
  O        -9.8293124780       -3.4993302663       -1.0042472880
  C        -6.7198117275       -1.5155721631       -7.0057360974
  H        -7.7266400310       -1.9701098143       -7.1795729881
  O        -6.3208037730       -1.2812141421       -5.7891801227
  O        -6.0546670581       -1.2647410752       -8.0219575549
  C        -1.9610306020        5.6962737072       -7.4797868569
  H        -1.8068881661        6.7616764611       -7.4798700689
  O        -2.4613788677        5.1953402046       -6.4147373301
  O        -1.7592038190        5.0404242691       -8.5376948407
  C        -1.7153677193        9.0065729983       -3.7807068554
  H        -1.3518565997        9.2891789052       -4.8285272378
  O        -1.7735635219        7.7204009534       -3.5311974415
  O        -1.9589811591        9.8892286280       -2.9296575010
  C         2.5176986766        8.6527359013       -4.1276241396
  H         2.7356319561        9.0838176512       -5.0545617483
  O         2.0941304229        7.4607563111       -4.0382054964
  O         2.6632020791        9.4136986823       -3.1567247192
  C         1.7405814703        5.3615037054       -8.2026998584
  H         1.4592813282        6.4433815072       -8.3446733349
  O         2.2712544771        5.0744229803       -7.0359036782
  O         1.5374971892        4.4786315137       -9.0204193621
  C         9.4791869119        2.6134878200        3.9079418032
  H         9.6264681644        3.4611325178        4.5867541287
  O         8.5294682966        2.7206869475        3.0468687327
  O        10.1884170796        1.5361363159        4.0354546634
  C         6.6320899766        7.0427804887        3.3240585285
  H         7.5183451153        7.1103565644        4.0025867163
  O         6.4921259472        6.1579139584        2.4473334656
  O         5.8014508194        7.8970951585        3.5804466065
  C         4.7468288793        5.8510846562        6.9391041765
  H         5.6837062732        5.7110173508        7.4566454645
  O         4.3315486404        4.9881730889        6.0840680113
  O         4.1390624477        6.9214380767        7.1338855679
  C         7.5642974957        1.7429307679        7.1823006621
  H         8.1116275708        2.6102062210        7.6466333920
  O         6.7423080014        2.0330978891        6.2208765696
  O         7.8434776238        0.5800715711        7.5931108165
     227
 i =        1, time =        1.000, E =        83.4492274940
 Cd        -8.6190653664        0.4790567200        3.4780835988
 Cd        -5.8736005479       -0.2567172990        7.1135423651
 Cd        -8.4083290440       -2.1553271464        0.3844114837
 Cd        -6.8919172575       -3.2907219057        3.9612668974
 Cd        -3.6903609052       -3.7015289170        7.3813328672
 Cd        -6.4425610556       -6.2353790821        0.4645624626
 Cd        -4.3120802528       -6.8289990672        3.9068064842
 Cd        -6.1170922403        3.8607715595        2.9075137896
 Cd        -3.6078726316        2.8817272219        6.5892013150
 Cd        -6.7533083135        1.1875079519       -0.3193147032
 Cd        -4.0451352752        0.0754930561        3.0497229283
 Cd        -1.7742226577       -0.3139189171        6.8328977296
 Cd        -6.3665147964       -1.4653085144       -3.4401261397
 Cd        -4.3626155684       -3.1210294364       -0.1741804683
 Cd        -2.2423878810       -3.6231082678        3.6333962308
 Cd         0.1772825531       -3.9621972806        7.0369258305
 Cd        -4.2703862397       -5.9863284924       -2.9988892338
 Cd        -2.2505738147       -6.7956076208        0.6784967928
 Cd         0.0670608521       -7.3042866249        3.8548364523
 Cd        -4.0786763295        7.4116232312        2.4202810637
 Cd        -1.6121052019        6.4894357974        6.2495860505
 Cd        -4.3323625742        4.8133325058       -0.6767105600
 Cd        -1.8303455176        3.6702997155        3.1582298973
 Cd         0.4898658955        3.1637346573        6.7194686078
 Cd        -4.5976009340        2.0003127656       -4.0903649179
 Cd        -2.1634415359        1.0190968160       -0.4515865577
 Cd         0.1382235520       -0.0673350839        3.1341217548
 Cd         2.6423886673       -0.6631980509        6.8947530203
 Cd        -4.1541572517       -0.5348141999       -6.9610546177
 Cd        -2.2034289765       -1.8483053971       -3.4908742457
 Cd         0.0356393687       -2.8475615588       -0.0251794776
 Cd         2.4401439226       -3.8232289264        3.5299447627
 Cd         4.5939015384       -4.2154782938        6.5947619468
 Cd        -2.6327175408       -4.5690496967       -6.0781869192
 Cd        -0.3605121899       -6.1196231215       -3.0633637958
 Cd         1.9871121463       -6.8518742826       -0.0370287469
 Cd         4.3582174979       -7.5022860830        3.0964397142
 Cd        -2.4306413619        8.2876045389       -1.2010554786
 Cd         0.1211222356        6.7918221456        2.0726720687
 Cd         2.2585162657        6.3885263348        5.9799746338
 Cd        -2.2730212269        5.5415041684       -4.1126556229
 Cd         0.1543733924        4.6149714129       -0.9813513289
 Cd         2.6158993269        3.7547278116        2.4630235840
 Cd         4.3942103875        2.5016509905        5.6457996169
 Cd        -2.3850319819        3.0928601268       -7.5405910684
 Cd        -0.1311289169        1.7710473033       -4.3470179306
 Cd         2.1526983069        0.8607960156       -0.9631250336
 Cd         4.3044525503       -0.4399867415        2.5265242320
 Cd         6.4919104046       -0.6510863600        6.0118977667
 Cd         0.4025209632       -0.5931054543       -7.0629196399
 Cd         2.1507126705       -1.8419235555       -3.9632046360
 Cd         4.1302041162       -2.9775212042       -0.5483213692
 Cd         6.9196833881       -3.7961872460        2.8874372645
 Cd         1.0698360361       -4.7673662032       -6.7916856035
 Cd         3.6508930077       -5.7622143961       -3.6168637029
 Cd         5.7315651917       -6.5626600154       -0.3321328499
 Cd         2.4531942654        8.1233162971       -1.1569271768
 Cd         4.4060449472        7.2904552776        1.7944417903
 Cd         2.3803660770        5.2449505413       -4.8074621221
 Cd         4.8177678928        4.7191312296       -1.4268269729
 Cd         6.7584485216        3.8408094261        2.0309428172
 Cd         2.6197437784        2.7835799661       -7.7035577633
 Cd         4.8467559072        1.7857944819       -4.5243730141
 Cd         6.7269452529        1.0632066177       -0.9630515067
 Cd         8.8869146234        0.4153447506        2.4356341005
 Cd         4.3611221409       -0.9252007317       -7.7315294211
 Cd         6.7421748697       -1.9758482036       -4.2007648274
 Cd         8.5296205013       -2.6208070965       -0.2521805991
 Se        -9.0583281530        0.2465728105        0.9164308109
 Se        -6.3733668437       -0.6559485138        4.4190765196
 Se        -3.9329568334       -1.3479466097        8.3021889841
 Se        -6.5827388785       -3.7436096572        1.3866392668
 Se        -4.5792182226       -4.2770656996        4.8617457011
 Se        -4.6130721197       -7.7812994505        1.5316779090
 Se        -6.6460101360        3.9857657484        0.4534854222
 Se        -4.0727934395        2.6203900988        3.9161958549
 Se        -1.6313073156        2.0139184695        7.9305558143
 Se        -6.7180142866        0.9867957764       -3.1636368358
 Se        -4.4083967646       -0.2119689095        0.3942434720
 Se        -2.0519565650       -1.1141257057        4.2607725505
 Se         0.4055636621       -1.5656484930        8.0685680086
 Se        -4.4169735647       -3.1325732299       -2.8066573653
 Se        -2.2357450197       -4.0919600506        0.9475649269
 Se         0.1519875562       -4.8119297257        4.4867860211
 Se        -2.4160676323       -7.4255526532       -2.0531571568
 Se        -0.0643913878       -7.8841743290        1.3098623188
 Se        -4.5575728178        7.5959743080       -0.0163366219
 Se        -1.8504491973        6.3645282394        3.5435184091
 Se         0.4043749963        5.8254667443        7.5927673068
 Se        -4.4707907596        4.5553293307       -3.3491158065
 Se        -2.0807882264        3.7147682222        0.3431909958
 Se         0.4996119337        2.6954446275        3.7309839716
 Se         2.7720780050        1.9962364761        7.6300637614
 Se        -4.6180492320        2.0755733045       -6.9057470918
 Se        -2.2799528809        0.8532765012       -3.1266473385
 Se         0.0158162223       -0.1635983153        0.3860403781
 Se         2.3132420102       -1.3162068952        4.0020074468
 Se         4.8646247658       -1.8838817789        7.7394937427
 Se        -2.0679643569       -1.9670170061       -6.4612917567
 Se        -0.0428453483       -3.1618960669       -2.8086892665
 Se         2.2316032197       -4.2324952255        0.7814292291
 Se         4.8369046729       -4.9553378265        4.0969690239
 Se        -0.7555316518       -6.2906723643       -5.8416133426
 Se         1.9251551377       -7.4829204101       -2.6094368502
 Se         4.2586353754       -8.3848596832        0.7340180544
 Se         0.0345625677        7.3701261850       -0.4923010450
 Se         2.3827354452        6.5251435836        3.1467824688
 Se         0.0451065585        4.4289229944       -3.5956087068
 Se         2.5169242365        3.6271751908       -0.0615536774
 Se         4.7749406216        2.4641048035        3.1241523928
 Se         0.0450187787        1.9330437269       -6.9737637960
 Se         2.2776081545        0.7666142908       -3.6575329479
 Se         4.3783484867       -0.2851767972       -0.0208895298
 Se         6.9684579681       -1.1301645629        3.5561333874
 Se         2.2399073281       -2.2715254913       -6.6851410860
 Se         4.3754677260       -3.1973940086       -3.2166314998
 Se         6.4325122765       -4.1125468679        0.4095813770
 Se         4.8579520126        7.5528333683       -0.7481459894
 Se         4.8791240273        4.5499851505       -4.0160672457
 Se         7.0893780418        3.5966894084       -0.6429081325
 Se         4.7876876630        1.5296292054       -7.5558151201
 Se         6.9235693324        0.6110273064       -3.7073408155
 Se         9.1102221911       -0.0614281829       -0.0949724430
  C         6.9966749942       -6.9498216808       -2.8612704021
  H         7.7649322095       -7.1224747738       -3.6684216540
  O         5.8541444809       -6.4721104919       -3.1391458113
  O         7.3063613238       -7.2824670766       -1.7093830185
  C         3.3950739653       -6.2672961568       -6.9491710731
  H         4.3444066225       -6.8936096686       -7.0753272229
  O         3.0208989180       -5.7948301017       -5.7953284069
  O         2.6232121179       -6.1737171278       -7.9280131784
  C         6.3106275902       -2.9078568119       -7.4910349636
  H         7.1299137504       -3.7048862282       -7.4466889051
  O         6.0082111123       -2.3216770052       -6.3593039439
  O         5.9446557532       -2.4793544133       -8.6154130301
  C         8.9774335694       -3.3708844334       -3.4296415863
  H         9.9250180562       -3.8774829974       -3.1826003730
  O         8.5750877096       -3.4202646401       -4.6061345804
  O         8.2762222684       -2.7010501388       -2.5298233009
  C         9.7980606731       -4.6251954193        2.1809925484
  H        10.6408655401       -5.3318691344        2.3887999993
  O         9.7573821612       -4.1871379639        0.9986166829
  O         9.0439212396       -4.5738454423        3.1897148103
  C        -2.8217255587       -8.8884236245        5.3598598275
  H        -2.4154187803       -9.9024293192        5.4343946394
  O        -1.9890228267       -7.9331348777        5.0456416146
  O        -4.0898464802       -8.7321671177        5.4084750868
  C         2.9969180135       -8.6916072274        5.2874290018
  H         2.6967725338       -9.0398269484        6.2934215078
  O         2.0090759344       -8.3638570436        4.5639366481
  O         4.2210500284       -8.6182926909        4.9436750877
  C         2.8792966160       -5.7053279808        8.2324160233
  H         2.3955873073       -6.3773024893        8.9303283437
  O         2.2297491131       -4.8156062217        7.6212887674
  O         4.1478141689       -5.9111986642        8.1606066684
  C        -2.5347096785       -5.9173496027        8.5219891978
  H        -2.0052498086       -6.7390725628        9.0096019785
  O        -1.9183832828       -5.2660284653        7.6012227740
  O        -3.6520217459       -5.5156833492        8.8988056590
  C        -6.8630650037        2.3027083281        7.3891868557
  H        -7.2086193538        3.3071349018        7.3885257928
  O        -5.6302168195        2.1614828206        7.5389927378
  O        -7.6746186633        1.3752262146        7.2013990560
  C        -4.1170011928        6.2827953546        7.2281778785
  H        -5.2418933127        6.2896177269        7.3832000201
  O        -3.5350537875        5.2332312056        6.7776371767
  O        -3.5953185321        7.4694075643        7.3203482014
  C        -6.2567363540        7.1462314112        4.0780976934
  H        -7.2111390447        7.1649409639        4.6689854642
  O        -5.8111153515        6.0567593447        3.6338608174
  O        -5.6239822459        8.2266448158        3.8593383494
  C        -9.2742057476        2.9617487168        4.4604816592
  H        -9.7855372140        3.8838940690        4.7760086716
  O        -8.0636127736        3.0119311816        4.1228739581
  O       -10.0897337816        1.9881497495        4.3979180973
  C        -9.6032698521       -3.5282146393        4.2551611475
  H       -10.5971720209       -3.6001750875        4.7566807035
  O        -9.3881804715       -2.7229471377        3.2957550993
  O        -8.6968183063       -4.3118875181        4.7713412567
  C        -5.4081384564       -6.0792245227       -6.1561845017
  H        -6.0546960796       -6.5859836395       -6.8890942905
  O        -5.3174425041       -6.5073399891       -4.9769873103
  O        -4.8094753104       -5.0955567698       -6.6884629004
  C        -7.4874876918       -7.2705582112       -1.8347966910
  H        -7.8388434959       -7.7173330376       -2.7530342297
  O        -6.3935915247       -6.5574720160       -1.8904660532
  O        -8.0776711687       -7.4451321650       -0.7502310192
  C        -9.2562645847       -3.4270032539       -2.1219714906
  H        -9.5270787848       -4.0663584857       -2.9594189931
  O        -8.1737312467       -2.7578641329       -2.2721378062
  O        -9.8286247342       -3.4979302160       -1.0135087272
  C        -6.7207045269       -1.5101532434       -7.0045909288
  H        -7.7450574417       -1.9674181007       -7.1698505571
  O        -6.3221618428       -1.2806735654       -5.8091712838
  O        -6.0740614586       -1.2682743506       -8.0215580868
  C        -1.9628989188        5.6954881516       -7.4853090432
  H        -1.7770888886        6.7764005651       -7.4923242406
  O        -2.4616412448        5.1933817626       -6.4163806221
  O        -1.7527227709        5.0532073058       -8.5349020367
  C        -1.7168847642        9.0074998918       -3.7839148936
  H        -1.3493405476        9.2660238074       -4.8465614694
  O        -1.7680796390        7.7308295257       -3.5280410802
  O        -1.9626176413        9.8943277427       -2.9459449231
  C         2.5062329496        8.6538796891       -4.1272907662
  H         2.7131102182        9.0638249498       -5.0476060874
  O         2.0940070950        7.4627149034       -4.0289154752
  O         2.6627763241        9.4157926962       -3.1622402521
  C         1.7411490217        5.3672417886       -8.1968595430
  H         1.4358383610        6.4416008070       -8.3632925476
  O         2.2766167927        5.0823065004       -7.0573283167
  O         1.5290915723        4.4897055365       -9.0225303863
  C         9.4768708494        2.6096262250        3.9000028444
  H         9.6131090334        3.4671477718        4.5843902861
  O         8.5362841883        2.7189021400        3.0558227324
  O        10.1939017443        1.5447910351        4.0395409025
  C         6.6326558857        7.0382960713        3.3282068181
  H         7.5082674956        7.1289998248        4.0070788575
  O         6.4983277418        6.1663404675        2.4502074043
  O         5.8022677315        7.9058880034        3.5885263230
  C         4.7447697377        5.8524790828        6.9353899476
  H         5.7085862008        5.7040540943        7.4370666698
  O         4.3328822322        4.9909897152        6.0827834842
  O         4.1585719632        6.9260707154        7.1446772087
  C         7.5603357091        1.7452813813        7.1878734587
  H         8.1158840311        2.6116602203        7.6593692779
  O         6.7516491817        2.0307662447        6.2270421314
  O         7.8476476855        0.5859015127        7.5936742258
     227
 i =        2, time =        2.000, E =        79.1766657708
 Cd        -8.6161279700        0.4761609241        3.4804692986
 Cd        -5.8788607652       -0.2557797800        7.1103360043
 Cd        -8.4093714156       -2.1597562465        0.3804494473
 Cd        -6.8871124937       -3.2899782550        3.9630775609