     227
 i =        0, time =        0.000, E =        -9.3890598187
 Cd        -8.6216924880        0.4810107428        3.4775887729
 Cd        -5.8723589632       -0.2566559957        7.1151373767
 Cd        -8.4076147924       -2.1531404527        0.3867588804
 Cd        -6.8957642261       -3.2896665849        3.9600318291
 Cd        -3.6930098048       -3.6992689615        7.3819491709
 Cd        -6.4429261463       -6.2347087238        0.4622469067
 Cd        -4.3123952394       -6.8285875372        3.9039095072
 Cd        -6.1141073353        3.8626235599        2.9066844924
 Cd        -3.6048790416        2.8797284733        6.5917986711
 Cd        -6.7531255596        1.1841266196       -0.3182182747
 Cd        -4.0437606329        0.0729837467        3.0511954168
 Cd        -1.7753257667       -0.3121054857        6.8316599018
 Cd        -6.3661028473       -1.4630135273       -3.4383357626
 Cd        -4.3602814436       -3.1214810613       -0.1759283953
 Cd        -2.2424276819       -3.6242998489        3.6335413818
 Cd         0.1757294635       -3.9625201566        7.0364714760
 Cd        -4.2692200317       -5.9860442556       -3.0005266361
 Cd        -2.2482225396       -6.7972628816        0.6786391664
 Cd         0.0669003827       -7.3030327295        3.8545421700
 Cd        -4.0792754193        7.4105475565        2.4175118797
 Cd        -1.6116442377        6.4880648240        6.2478272306
 Cd        -4.3308002626        4.8127262164       -0.6762739309
 Cd        -1.8326132452        3.6694977750        3.1598212265
 Cd         0.4939817277        3.1637060931        6.7202662426
 Cd        -4.5980154021        1.9988297698       -4.0880170010
 Cd        -2.1651194586        1.0165564496       -0.4536921834
 Cd         0.1376109507       -0.0659106884        3.1336818174
 Cd         2.6419074521       -0.6636939286        6.8958319365
 Cd        -4.1515129292       -0.5348426091       -6.9620217917
 Cd        -2.2012490343       -1.8491984656       -3.4894107829
 Cd         0.0359311218       -2.8494155653       -0.0264680683
 Cd         2.4407298775       -3.8224684908        3.5289587884
 Cd         4.5907434619       -4.2169180472        6.5928471603
 Cd        -2.6321953796       -4.5685798778       -6.0773989300
 Cd        -0.3638438279       -6.1221236347       -3.0620735359
 Cd         1.9882729153       -6.8506852632       -0.0376753302
 Cd         4.3604701588       -7.5063202656        3.0981086138
 Cd        -2.4313710890        8.2839908015       -1.2010761441
 Cd         0.1210964618        6.7915494583        2.0748938605
 Cd         2.2602783261        6.3879934074        5.9824457591
 Cd        -2.2743307721        5.5403016700       -4.1096429978
 Cd         0.1552258413        4.6164378819       -0.9814446932
 Cd         2.6173372932        3.7540356816        2.4616712460
 Cd         4.3934694910        2.5024270436        5.6448470259
 Cd        -2.3839877703        3.0961459608       -7.5397423510
 Cd        -0.1308699873        1.7716472388       -4.3458913396
 Cd         2.1522040622        0.8595996928       -0.9600505658
 Cd         4.3027041934       -0.4425155449        2.5248589789
 Cd         6.4943132815       -0.6514444341        6.0110723312
 Cd         0.4032906214       -0.5920449882       -7.0625722312
 Cd         2.1504065746       -1.8410095193       -3.9631978812
 Cd         4.1282053355       -2.9764966895       -0.5499119195
 Cd         6.9189885741       -3.8001688729        2.8840486736
 Cd         1.0693858855       -4.7693596381       -6.7909688629
 Cd         3.6529341800       -5.7620820022       -3.6150795142
 Cd         5.7341856059       -6.5625995016       -0.3323817960
 Cd         2.4532379782        8.1225833618       -1.1556872380
 Cd         4.4025673150        7.2904811152        1.7928276254
 Cd         2.3800547108        5.2453457502       -4.8107637235
 Cd         4.8184663347        4.7191125514       -1.4277792117
 Cd         6.7589411702        3.8390778732        2.0295448973
 Cd         2.6210634084        2.7844913241       -7.7035228004
 Cd         4.8495943395        1.7843685348       -4.5225056138
 Cd         6.7261500983        1.0662237140       -0.9642295531
 Cd         8.8881450478        0.4141445330        2.4369093904
 Cd         4.3615782352       -0.9213178924       -7.7328888960
 Cd         6.7438649008       -1.9767569930       -4.2031112584
 Cd         8.5272445020       -2.6218905711       -0.2551455218
 Se        -9.0557725106        0.2424574140        0.9180313808
 Se        -6.3745872764       -0.6570220647        4.4225742627
 Se        -3.9358548519       -1.3506397678        8.2925868769
 Se        -6.5830028390       -3.7408669090        1.3890860046
 Se        -4.5802302415       -4.2716541219        4.8585926421
 Se        -4.6110671623       -7.7792240778        1.5343213278
 Se        -6.6407812351        3.9866809498        0.4586064126
 Se        -4.0705866514        2.6241591830        3.9150270775
 Se        -1.6315747320        2.0143859544        7.9219454430
 Se        -6.7106235468        0.9827493806       -3.1628202938
 Se        -4.4077684895       -0.2106461950        0.3970531668
 Se        -2.0534879979       -1.1190641497        4.2604482105
 Se         0.4069246601       -1.5676855049        8.0617057342
 Se        -4.4126107232       -3.1307459794       -2.8028288282
 Se        -2.2371864822       -4.0884616040        0.9473336128
 Se         0.1541797359       -4.8148952714        4.4843326207
 Se        -2.4147106009       -7.4199706225       -2.0529393442
 Se        -0.0662571417       -7.8800811154        1.3078284855
 Se        -4.5519687636        7.5920037884       -0.0122560791
 Se        -1.8482840651        6.3647212661        3.5390459072
 Se         0.4006735392        5.8241498358        7.5878867146
 Se        -4.4655945585        4.5529209660       -3.3484418515
 Se        -2.0798083538        3.7153034916        0.3451575142
 Se         0.4973892782        2.6967113851        3.7286137790
 Se         2.7724753484        1.9958260876        7.6298945277
 Se        -4.6126224962        2.0736182894       -6.9031574659
 Se        -2.2770211290        0.8531533747       -3.1284312065
 Se         0.0138865169       -0.1636477002        0.3858468104
 Se         2.3115473387       -1.3198431962        4.0017354986
 Se         4.8624545925       -1.8855864388        7.7371297607
 Se        -2.0700877949       -1.9675257511       -6.4603372509
 Se        -0.0447057629       -3.1582708631       -2.8090856920
 Se         2.2343306950       -4.2299664240        0.7817840723
 Se         4.8342987615       -4.9516929708        4.0974643468
 Se        -0.7556003326       -6.2829108386       -5.8406699955
 Se         1.9243057511       -7.4784768035       -2.6074198353
 Se         4.2543989663       -8.3809591814        0.7363809319
 Se         0.0386925703        7.3677075300       -0.4939635450
 Se         2.3791568525        6.5289221229        3.1400383851
 Se         0.0465974103        4.4270318221       -3.5936563407
 Se         2.5167269427        3.6273521599       -0.0581806204
 Se         4.7705604635        2.4670139639        3.1233546104
 Se         0.0435933033        1.9323944164       -6.9695738842
 Se         2.2733127965        0.7623703678       -3.6584263160
 Se         4.3816175435       -0.2841549253       -0.0177063702
 Se         6.9670500347       -1.1290204494        3.5565582379
 Se         2.2410869402       -2.2702007814       -6.6798205275
 Se         4.3723294721       -3.1971869108       -3.2130677403
 Se         6.4331938555       -4.1098532443        0.4136420186
 Se         4.8503033307        7.5509093293       -0.7463548497
 Se         4.8776288797        4.5477652435       -4.0091414448
 Se         7.0830986217        3.5950723552       -0.6434567968
 Se         4.7810064642        1.5273410534       -7.5566303287
 Se         6.9188050062        0.6130038217       -3.7081238627
 Se         9.1066871843       -0.0609359671       -0.0919647969
  C         6.9955771113       -6.9586634775       -2.8583426301
  H         7.7780160969       -7.1271873265       -3.6573399650
  O         5.8389952916       -6.4652991204       -3.1445809228
  O         7.2920676004       -7.2683568805       -1.6893132711
  C         3.3939431960       -6.2668607509       -6.9513074648
  H         4.3245440932       -6.8689211647       -7.0591687882
  O         3.0202466073       -5.7860511295       -5.7843136273
  O         2.6220129789       -6.1746538788       -7.9242101403
  C         6.3116555909       -2.9071154185       -7.4921130606
  H         7.0978863851       -3.7212906458       -7.4285512081
  O         6.0096715894       -2.3219711192       -6.3505932827
  O         5.9403243477       -2.4750431756       -8.6116316973
  C         8.9837561036       -3.3697375837       -3.4349055328
  H         9.9249943929       -3.8864043165       -3.1840078659
  O         8.5659407989       -3.4209184445       -4.6048832464
  O         8.2714489672       -2.6971151254       -2.5207012617
  C         9.7902109758       -4.6282247391        2.1768529346
  H        10.6284324694       -5.3337138149        2.3552924638
  O         9.7484501532       -4.1824896055        0.9942458601
  O         9.0219926648       -4.5705851174        3.1873629795
  C        -2.8252708508       -8.8894178348        5.3653894160
  H        -2.3915771747       -9.8892286280        5.4446685031
  O        -1.9808601030       -7.9304545651        5.0436955975
  O        -4.0908415257       -8.7280019527        5.4030844137
  C         3.0047406823       -8.6887063298        5.2919739424
  H         2.6853413808       -9.0312323512        6.2714246943
  O         1.9985977812       -8.3553887881        4.5599054594
  O         4.2197147413       -8.6069092298        4.9235206312
  C         2.8732291572       -5.7090624943        8.2322507888
  H         2.4095730423       -6.3582442170        8.9295273658
  O         2.2236878889       -4.8031284854        7.6183804854
  O         4.1525405945       -5.8988692439        8.1468427445
  C        -2.5324052264       -5.9090323801        8.5168983878
  H        -2.0058427467       -6.7599986745        9.0204193621
  O        -1.9189018681       -5.2527647032        7.5983339134
  O        -3.6521974131       -5.4981014961        8.8936623702
  C        -6.8661340661        2.3082426882        7.3884767521
  H        -7.2433530482        3.2983326111        7.3747512577
  O        -5.6189307919        2.1553364867        7.5292857639
  O        -7.6694328727        1.3672322100        7.2032576312
  C        -4.1128935570        6.2776012356        7.2258109093
  H        -5.2184092536        6.2949225170        7.4003980339
  O        -3.5215502414        5.2331222329        6.7794929280
  O        -3.5956064510        7.4679880815        7.3184340370
  C        -6.2584500423        7.1467273309        4.0778865765
  H        -7.2018864753        7.1620259062        4.6862261037
  O        -5.8042352338        6.0508881806        3.6277903665
  O        -5.6141473350        8.2227071687        3.8530055117
  C        -9.2670155991        2.9624473135        4.4549609073
  H        -9.7760873251        3.8307467380        4.7753730710
  O        -8.0580447847        3.0137717908        4.1153681461
  O       -10.0869615960        1.9755230626        4.3964141791
  C        -9.5997958208       -3.5202239981        4.2555074891
  H       -10.6284324694       -3.6062117458        4.7363993397
  O        -9.3836198173       -2.7271085544        3.2939504316
  O        -8.6749593009       -4.3055307223        4.7674147240
  C        -5.4063829718       -6.0836320759       -6.1576393485
  H        -6.0390997038       -6.5934387315       -6.8768176703
  O        -5.3157147411       -6.5042627408       -4.9638375967
  O        -4.7997118332       -5.0931497246       -6.6842330004
  C        -7.4812021438       -7.2683192216       -1.8337008205
  H        -7.8430239833       -7.7214409635       -2.7403108931
  O        -6.3847231004       -6.5596142310       -1.8855223803
  O        -8.0870004405       -7.4369608581       -0.7449951352
  C        -9.2637717352       -3.4248031045       -2.1287629167
  H        -9.5435102925       -4.0726156799       -2.9624854104
  O        -8.1685743898       -2.7562864935       -2.2769679175
  O        -9.8293124780       -3.4993302663       -1.0042472880
  C        -6.7198117275       -1.5155721631       -7.0057360974
  H        -7.7266400310       -1.9701098143       -7.1795729881
  O        -6.3208037730       -1.2812141421       -5.7891801227
  O        -6.0546670581       -1.2647410752       -8.0219575549
  C        -1.9610306020        5.6962737072       -7.4797868569
  H        -1.8068881661        6.7616764611       -7.4798700689
  O        -2.4613788677        5.1953402046       -6.4147373301
  O        -1.7592038190        5.0404242691       -8.5376948407
  C        -1.7153677193        9.0065729983       -3.7807068554
  H        -1.3518565997        9.2891789052       -4.8285272378
  O        -1.7735635219        7.7204009534       -3.5311974415
  O        -1.9589811591        9.8892286280       -2.9296575010
  C         2.5176986766        8.6527359013       -4.1276241396
  H         2.7356319561        9.0838176512       -5.0545617483
  O         2.0941304229        7.4607563111       -4.0382054964
  O         2.6632020791        9.4136986823       -3.1567247192
  C         1.7405814703        5.3615037054       -8.2026998584
  H         1.4592813282        6.4433815072       -8.3446733349
  O         2.2712544771        5.0744229803       -7.0359036782
  O         1.5374971892        4.4786315137       -9.0204193621
  C         9.4791869119        2.6134878200        3.9079418032
  H         9.6264681644        3.4611325178        4.5867541287
  O         8.5294682966        2.7206869475        3.0468687327
  O        10.1884170796        1.5361363159        4.0354546634
  C         6.6320899766        7.0427804887        3.3240585285
  H         7.5183451153        7.1103565644        4.0025867163
  O         6.4921259472        6.1579139584        2.4473334656
  O         5.8014508194        7.8970951585        3.5804466065
  C         4.7468288793        5.8510846562        6.9391041765
  H         5.6837062732        5.7110173508        7.4566454645
  O         4.3315486404        4.9881730889        6.0840680113
  O         4.1390624477        6.9214380767        7.1338855679
  C         7.5642974957        1.7429307679        7.1823006621
  H         8.1116275708        2.6102062210        7.6466333920
  O         6.7423080014        2.0330978891        6.2208765696
  O         7.8434776238        0.5800715711        7.5931108165
     227
 i =        1, time =        1.000, E =        -9.3982641602
 Cd        -8.6193406090        0.4796352494        3.4771740075
 Cd        -5.8715437064       -0.2571978486        7.1143919255
 Cd        -8.4082152276       -2.1541392666        0.3852315079
 Cd        -6.8927262679       -3.2918028988        3.9610979778
 Cd        -3.6901795786       -3.7003911175        7.3823681300
 Cd        -6.4419745243       -6.2357495074        0.4642813052
 Cd        -4.3123512938       -6.8296105117        3.9052235235
 Cd        -6.1163800433        3.8609264062        2.9055705890
 Cd        -3.6066222423        2.8812282666        6.5903921399
 Cd        -6.7534216908        1.1872333167       -0.3192210173
 Cd        -4.0444136655        0.0755172562        3.0501769030
 Cd        -1.7741898367       -0.3125806338        6.8335632096
 Cd        -6.3660893944       -1.4624505676       -3.4401694848
 Cd        -4.3613541574       -3.1217812278       -0.1745536999
 Cd        -2.2426079229       -3.6215772830        3.6336037717
 Cd         0.1786940405       -3.9615917542        7.0369308956
 Cd        -4.2693693023       -5.9882098516       -2.9988625519
 Cd        -2.2487163362       -6.7966109459        0.6791689629
 Cd         0.0677830817       -7.3029941798        3.8542319462
 Cd        -4.0802736830        7.4119328169        2.4182758864
 Cd        -1.6107837724        6.4879394706        6.2509493029
 Cd        -4.3325202945        4.8128087614       -0.6769452437
 Cd        -1.8303904582        3.6695963415        3.1589384344
 Cd         0.4898046641        3.1633490172        6.7205142676
 Cd        -4.5996081055        2.0001040733       -4.0890162238
 Cd        -2.1628898749        1.0181289436       -0.4517498049
 Cd         0.1384265032       -0.0681634110        3.1344056926
 Cd         2.6424449146       -0.6635592817        6.8958834606
 Cd        -4.1540692493       -0.5351491496       -6.9611277924
 Cd        -2.2031765817       -1.8490951753       -3.4900313785
 Cd         0.0358062997       -2.8474773876       -0.0250979329
 Cd         2.4397148884       -3.8215625480        3.5304614886
 Cd         4.5938408186       -4.2151949692        6.5946733682
 Cd        -2.6316940921       -4.5699680119       -6.0785385830
 Cd        -0.3609652357       -6.1210412400       -3.0631296341
 Cd         1.9864119463       -6.8523340485       -0.0374572154
 Cd         4.3578744851       -7.5050236631        3.0973918849
 Cd        -2.4320446461        8.2867333426       -1.2003529783
 Cd         0.1211450682        6.7911440764        2.0747732982
 Cd         2.2580932783        6.3879425238        5.9826193105
 Cd        -2.2740299546        5.5405496754       -4.1121230905
 Cd         0.1544593518        4.6148620861       -0.9823287998
 Cd         2.6165154022        3.7533652523        2.4610434062
 Cd         4.3939180807        2.5015250030        5.6446997133
 Cd        -2.3864641176        3.0937021286       -7.5398998089
 Cd        -0.1312621573        1.7709161526       -4.3474138702
 Cd         2.1531600232        0.8600264267       -0.9631990016
 Cd         4.3034707909       -0.4402589731        2.5248250055
 Cd         6.4920205373       -0.6517799224        6.0104962506
 Cd         0.4042479274       -0.5927813429       -7.0621369382
 Cd         2.1513021106       -1.8410994050       -3.9633281713
 Cd         4.1299701250       -2.9780161934       -0.5482309563
 Cd         6.9198169863       -3.7969714423        2.8855466049
 Cd         1.0695486667       -4.7691815820       -6.7906814855
 Cd         3.6506243859       -5.7625094733       -3.6177067788
 Cd         5.7329488130       -6.5640100187       -0.3327663914
 Cd         2.4551035094        8.1223058159       -1.1566076192
 Cd         4.4053459845        7.2897983055        1.7948222384
 Cd         2.3804041047        5.2452022214       -4.8087111736
 Cd         4.8189667831        4.7184582263       -1.4283913113
 Cd         6.7582291197        3.8401548685        2.0311393697
 Cd         2.6217820292        2.7829041820       -7.7033782125
 Cd         4.8493180663        1.7846754388       -4.5231401829
 Cd         6.7277056034        1.0650006210       -0.9631045645
 Cd         8.8867421531        0.4155724875        2.4348014080
 Cd         4.3617900941       -0.9226317551       -7.7309294316
 Cd         6.7427669829       -1.9756163293       -4.2012650135
 Cd         8.5291328286       -2.6208020387       -0.2527829485
 Se        -9.0548113517        0.2429108549        0.9183037512
 Se        -6.3727698767       -0.6564819405        4.4183150941
 Se        -3.9345218143       -1.3489336800        8.2965756430
 Se        -6.5831247161       -3.7425397574        1.3880714538
 Se        -4.5790807305       -4.2748565536        4.8597477673
 Se        -4.6122397436       -7.7766267456        1.5328296472
 Se        -6.6422999954        3.9855677887        0.4576732011
 Se        -4.0719744213        2.6208462906        3.9143108612
 Se        -1.6333086259        2.0117570104        7.9251723942
 Se        -6.7117258723        0.9829259948       -3.1654560725
 Se        -4.4070811647       -0.2111946602        0.3948872685
 Se        -2.0531283711       -1.1153400205        4.2593972960
 Se         0.4059996380       -1.5661498072        8.0651087498
 Se        -4.4160841317       -3.1300090736       -2.8046837109
 Se        -2.2374332285       -4.0915932859        0.9472088917
 Se         0.1530515242       -4.8127515712        4.4858120741
 Se        -2.4165621535       -7.4206573893       -2.0539450273
 Se        -0.0669391478       -7.8791793851        1.3095433643
 Se        -4.5521764538        7.5948507667       -0.0126260958
 Se        -1.8467880059        6.3633087851        3.5401002399
 Se         0.4037088618        5.8261595994        7.5859311396
 Se        -4.4660717216        4.5539740145       -3.3489553079
 Se        -2.0809852460        3.7152484388        0.3431776602
 Se         0.4982381939        2.6969942508        3.7286963306
 Se         2.7717999330        1.9958747251        7.6262464103
 Se        -4.6132209890        2.0747808016       -6.9049164294
 Se        -2.2788983524        0.8535219286       -3.1261035648
 Se         0.0145631150       -0.1632241334        0.3854018095
 Se         2.3129719336       -1.3189100304        3.9990316916
 Se         4.8631664138       -1.8842990265        7.7354448471
 Se        -2.0701954133       -1.9664214874       -6.4603871457
 Se        -0.0447118543       -3.1599444412       -2.8087901643
 Se         2.2323230631       -4.2314684968        0.7809412861
 Se         4.8362447656       -4.9531107613        4.0967238987
 Se        -0.7551479492       -6.2848675082       -5.8413963207
 Se         1.9250143068       -7.4790784390       -2.6076433259
 Se         4.2593608909       -8.3792302376        0.7363868669
 Se         0.0356353562        7.3686336407       -0.4913444385
 Se         2.3809320742        6.5252173078        3.1425033177
 Se         0.0437299884        4.4288340001       -3.5940130288
 Se         2.5163943151        3.6274385750       -0.0568679582
 Se         4.7727188626        2.4661726360        3.1253241315
 Se         0.0455187540        1.9299936275       -6.9705314646
 Se         2.2758416129        0.7648495902       -3.6570719289
 Se         4.3766659136       -0.2853661746       -0.0178241934
 Se         6.9677241131       -1.1294393456        3.5582286182
 Se         2.2370210586       -2.2682054320       -6.6837785096
 Se         4.3737516968       -3.1974937454       -3.2156714734
 Se         6.4331552245       -4.1116924566        0.4129490224
 Se         4.8515921603        7.5524233080       -0.7459364064
 Se         4.8774969085        4.5489940838       -4.0122607089
 Se         7.0856237935        3.5934828226       -0.6428992207
 Se         4.7817379881        1.5264461557       -7.5555493257
 Se         6.9185954493        0.6112232718       -3.7073712155
 Se         9.1068965350       -0.0626861240       -0.0923500693
  C         6.9966784180       -6.9498403875       -2.8612695353
  H         7.7649322095       -7.1224747738       -3.6684216540
  O         5.8440543933       -6.4672507272       -3.1400871839
  O         7.2886455363       -7.2741901423       -1.6937089471
  C         3.3950656367       -6.2673063970       -6.9491811971
  H         4.3444066225       -6.8936096686       -7.0753272229
  O         3.0188402669       -5.7909115057       -5.7820737554
  O         2.6177430430       -6.1689417390       -7.9240096208
  C         6.3106279522       -2.9078505355       -7.4910559758
  H         7.1299137504       -3.7048862282       -7.4466889051
  O         6.0085339629       -2.3182114480       -6.3475025438
  O         5.9393931798       -2.4742715138       -8.6124873502
  C         8.9774485829       -3.3708806502       -3.4296489429
  H         9.9250180562       -3.8774829974       -3.1826003730
  O         8.5683128632       -3.4149026067       -4.6046296286
  O         8.2717556225       -2.6967097377       -2.5200997008
  C         9.7980748670       -4.6252009892        2.1809981788
  H        10.6408655401       -5.3318691344        2.3887999993
  O         9.7471539426       -4.1805429158        0.9926262761
  O         9.0286839051       -4.5681607102        3.1870589875
  C        -2.8217312186       -8.8884384779        5.3598597299
  H        -2.4154187803       -9.9024293192        5.4343946394
  O        -1.9847620241       -7.9306639759        5.0423486315
  O        -4.0904614993       -8.7274682291        5.4044391821
  C         2.9969219326       -8.6916228942        5.2874265753
  H         2.6967725338       -9.0398269484        6.2934215078
  O         1.9993905457       -8.3579058894        4.5594469564
  O         4.2233567347       -8.6007010000        4.9156767673
  C         2.8793045202       -5.7053269533        8.2324281456
  H         2.3955873073       -6.3773024893        8.9303283437
  O         2.2190438842       -4.8088707744        7.6163797629
  O         4.1498269743       -5.9035232828        8.1536429855
  C        -2.5347133329       -5.9173478169        8.5220072623
  H        -2.0052498086       -6.7390725628        9.0096019785
  O        -1.9213868211       -5.2583887957        7.5983484828
  O        -3.6522418706       -5.5084534656        8.8928019246
  C        -6.8630680927        2.3027059006        7.3892074595
  H        -7.2086193538        3.3071349018        7.3885257928
  O        -5.6213568228        2.1591242222        7.5337360561
  O        -7.6695817018        1.3702916377        7.1999568733
  C        -4.1169963053        6.2828046270        7.2281921794
  H        -5.2418933127        6.2896177269        7.3832000201
  O        -3.5267269087        5.2290665556        6.7738570011
  O        -3.5911094880        7.4673454174        7.3180713127
  C        -6.2567433978        7.1462441403        4.0780923975
  H        -7.2111390447        7.1649409639        4.6689854642
  O        -5.8090610490        6.0479116401        3.6279077345
  O        -5.6128385892        8.2207647663        3.8487893675
  C        -9.2742218019        2.9617577574        4.4604767599
  H        -9.7855372140        3.8838940690        4.7760086716
  O        -8.0588524802        3.0119024968        4.1192968105
  O       -10.0811570712        1.9793227057        4.3922301669
  C        -9.6032808385       -3.5282208514        4.2551676771
  H       -10.5971720209       -3.6001750875        4.7566807035
  O        -9.3833108051       -2.7227904515        3.2942738949
  O        -8.6787235796       -4.3017520986        4.7630371601
  C        -5.4081382360       -6.0792352001       -6.1561959037
  H        -6.0546960796       -6.5859836395       -6.8890942905
  O        -5.3110805697       -6.5041161391       -4.9652753332
  O        -4.7984774780       -5.0927636198       -6.6853305806
  C        -7.4874945961       -7.2705753622       -1.8347937874
  H        -7.8388434959       -7.7173330376       -2.7530342297
  O        -6.3887738101       -6.5550073555       -1.8843384577
  O        -8.0717311454       -7.4409411362       -0.7458587518
  C        -9.2562802842       -3.4269973258       -2.1219765265
  H        -9.5270787848       -4.0663584857       -2.9594189931
  O        -8.1698491469       -2.7554203064       -2.2727065140
  O        -9.8242527874       -3.4939912892       -1.0092350227
  C        -6.7207108503       -1.5101430285       -7.0046022253
  H        -7.7450574417       -1.9674181007       -7.1698505571
  O        -6.3198478359       -1.2781246472       -5.7990821333
  O        -6.0633799884       -1.2634964865       -8.0155587291
  C        -1.9629105541        5.6954908198       -7.4853200000
  H        -1.7770888886        6.7764005651       -7.4923242406
  O        -2.4611884446        5.1867574690       -6.4087611854
  O        -1.7563803843        5.0405068261       -8.5284032326
  C        -1.7168962226        9.0075126393       -3.7839136524
  H        -1.3493405476        9.2660238074       -4.8465614694
  O        -1.7700389071        7.7195497030       -3.5246422608
  O        -1.9637464871        9.8896154014       -2.9408745126
  C         2.5062429499        8.6538907477       -4.1272905449
  H         2.7131102182        9.0638249498       -5.0476060874
  O         2.0944583864        7.4533006236       -4.0307075095
  O         2.6627578365        9.4111971246       -3.1552850307
  C         1.7411625387        5.3672432792       -8.1968701409
  H         1.4358383610        6.4416008070       -8.3632925476
  O         2.2781485516        5.0766391509       -7.0408319164
  O         1.5312275211        4.4833950519       -9.0176110128
  C         9.4768902707        2.6096284819        3.8999975206
  H         9.6131090334        3.4671477718        4.5843902861
  O         8.5280539575        2.7173669739        3.0492256846
  O        10.1885821090        1.5401805142        4.0331401999
  C         6.6326630841        7.0383107958        3.3282005622
  H         7.5082674956        7.1289998248        4.0070788575
  O         6.4945108087        6.1604598013        2.4465821903
  O         5.7955287141        7.9030295271        3.5813378907
  C         4.7447655783        5.8524856166        6.9354043358
  H         5.7085862008        5.7040540943        7.4370666698
  O         4.3286153805        4.9885624743        6.0815350615
  O         4.1457549341        6.9224343873        7.1372229052
  C         7.5603391568        1.7452806677        7.1878898791
  H         8.1158840311        2.6116602203        7.6593692779
  O         6.7459035790        2.0302463240        6.2244704968
  O         7.8435359650        0.5821734813        7.5895570805
     227
 i =        2, time =        2.000, E =        -9.4131875340
 Cd        -8.6169900216        0.4782893780        3.4767837801
 Cd        -5.8707960594       -0.2576663972        7.1136313257
 Cd        -8.4088641268       -2.1551929008        0.3836617546
 Cd        -6.8896809147       -3.2939105367        3.9621554287