     227
 i =        0, time =        0.000, E =        16.1566086649
 Cd        -8.6216924880        0.4810107428        3.4775887729
 Cd        -5.8723589632       -0.2566559957        7.1151373767
 Cd        -8.4076147924       -2.1531404527        0.3867588804
 Cd        -6.8957642261       -3.2896665849        3.9600318291
 Cd        -3.6930098048       -3.6992689615        7.3819491709
 Cd        -6.4429261463       -6.2347087238        0.4622469067
 Cd        -4.3123952394       -6.8285875372        3.9039095072
 Cd        -6.1141073353        3.8626235599        2.9066844924
 Cd        -3.6048790416        2.8797284733        6.5917986711
 Cd        -6.7531255596        1.1841266196       -0.3182182747
 Cd        -4.0437606329        0.0729837467        3.0511954168
 Cd        -1.7753257667       -0.3121054857        6.8316599018
 Cd        -6.3661028473       -1.4630135273       -3.4383357626
 Cd        -4.3602814436       -3.1214810613       -0.1759283953
 Cd        -2.2424276819       -3.6242998489        3.6335413818
 Cd         0.1757294635       -3.9625201566        7.0364714760
 Cd        -4.2692200317       -5.9860442556       -3.0005266361
 Cd        -2.2482225396       -6.7972628816        0.6786391664
 Cd         0.0669003827       -7.3030327295        3.8545421700
 Cd        -4.0792754193        7.4105475565        2.4175118797
 Cd        -1.6116442377        6.4880648240        6.2478272306
 Cd        -4.3308002626        4.8127262164       -0.6762739309
 Cd        -1.8326132452        3.6694977750        3.1598212265
 Cd         0.4939817277        3.1637060931        6.7202662426
 Cd        -4.5980154021        1.9988297698       -4.0880170010
 Cd        -2.1651194586        1.0165564496       -0.4536921834
 Cd         0.1376109507       -0.0659106884        3.1336818174
 Cd         2.6419074521       -0.6636939286        6.8958319365
 Cd        -4.1515129292       -0.5348426091       -6.9620217917
 Cd        -2.2012490343       -1.8491984656       -3.4894107829
 Cd         0.0359311218       -2.8494155653       -0.0264680683
 Cd         2.4407298775       -3.8224684908        3.5289587884
 Cd         4.5907434619       -4.2169180472        6.5928471603
 Cd        -2.6321953796       -4.5685798778       -6.0773989300
 Cd        -0.3638438279       -6.1221236347       -3.0620735359
 Cd         1.9882729153       -6.8506852632       -0.0376753302
 Cd         4.3604701588       -7.5063202656        3.0981086138
 Cd        -2.4313710890        8.2839908015       -1.2010761441
 Cd         0.1210964618        6.7915494583        2.0748938605
 Cd         2.2602783261        6.3879934074        5.9824457591
 Cd        -2.2743307721        5.5403016700       -4.1096429978
 Cd         0.1552258413        4.6164378819       -0.9814446932
 Cd         2.6173372932        3.7540356816        2.4616712460
 Cd         4.3934694910        2.5024270436        5.6448470259
 Cd        -2.3839877703        3.0961459608       -7.5397423510
 Cd        -0.1308699873        1.7716472388       -4.3458913396
 Cd         2.1522040622        0.8595996928       -0.9600505658
 Cd         4.3027041934       -0.4425155449        2.5248589789
 Cd         6.4943132815       -0.6514444341        6.0110723312
 Cd         0.4032906214       -0.5920449882       -7.0625722312
 Cd         2.1504065746       -1.8410095193       -3.9631978812
 Cd         4.1282053355       -2.9764966895       -0.5499119195
 Cd         6.9189885741       -3.8001688729        2.8840486736
 Cd         1.0693858855       -4.7693596381       -6.7909688629
 Cd         3.6529341800       -5.7620820022       -3.6150795142
 Cd         5.7341856059       -6.5625995016       -0.3323817960
 Cd         2.4532379782        8.1225833618       -1.1556872380
 Cd         4.4025673150        7.2904811152        1.7928276254
 Cd         2.3800547108        5.2453457502       -4.8107637235
 Cd         4.8184663347        4.7191125514       -1.4277792117
 Cd         6.7589411702        3.8390778732        2.0295448973
 Cd         2.6210634084        2.7844913241       -7.7035228004
 Cd         4.8495943395        1.7843685348       -4.5225056138
 Cd         6.7261500983        1.0662237140       -0.9642295531
 Cd         8.8881450478        0.4141445330        2.4369093904
 Cd         4.3615782352       -0.9213178924       -7.7328888960
 Cd         6.7438649008       -1.9767569930       -4.2031112584
 Cd         8.5272445020       -2.6218905711       -0.2551455218
 Se        -9.0557725106        0.2424574140        0.9180313808
 Se        -6.3745872764       -0.6570220647        4.4225742627
 Se        -3.9358548519       -1.3506397678        8.2925868769
 Se        -6.5830028390       -3.7408669090        1.3890860046
 Se        -4.5802302415       -4.2716541219        4.8585926421
 Se        -4.6110671623       -7.7792240778        1.5343213278
 Se        -6.6407812351        3.9866809498        0.4586064126
 Se        -4.0705866514        2.6241591830        3.9150270775
 Se        -1.6315747320        2.0143859544        7.9219454430
 Se        -6.7106235468        0.9827493806       -3.1628202938
 Se        -4.4077684895       -0.2106461950        0.3970531668
 Se        -2.0534879979       -1.1190641497        4.2604482105
 Se         0.4069246601       -1.5676855049        8.0617057342
 Se        -4.4126107232       -3.1307459794       -2.8028288282
 Se        -2.2371864822       -4.0884616040        0.9473336128
 Se         0.1541797359       -4.8148952714        4.4843326207
 Se        -2.4147106009       -7.4199706225       -2.0529393442
 Se        -0.0662571417       -7.8800811154        1.3078284855
 Se        -4.5519687636        7.5920037884       -0.0122560791
 Se        -1.8482840651        6.3647212661        3.5390459072
 Se         0.4006735392        5.8241498358        7.5878867146
 Se        -4.4655945585        4.5529209660       -3.3484418515
 Se        -2.0798083538        3.7153034916        0.3451575142
 Se         0.4973892782        2.6967113851        3.7286137790
 Se         2.7724753484        1.9958260876        7.6298945277
 Se        -4.6126224962        2.0736182894       -6.9031574659
 Se        -2.2770211290        0.8531533747       -3.1284312065
 Se         0.0138865169       -0.1636477002        0.3858468104
 Se         2.3115473387       -1.3198431962        4.0017354986
 Se         4.8624545925       -1.8855864388        7.7371297607
 Se        -2.0700877949       -1.9675257511       -6.4603372509
 Se        -0.0447057629       -3.1582708631       -2.8090856920
 Se         2.2343306950       -4.2299664240        0.7817840723
 Se         4.8342987615       -4.9516929708        4.0974643468
 Se        -0.7556003326       -6.2829108386       -5.8406699955
 Se         1.9243057511       -7.4784768035       -2.6074198353
 Se         4.2543989663       -8.3809591814        0.7363809319
 Se         0.0386925703        7.3677075300       -0.4939635450
 Se         2.3791568525        6.5289221229        3.1400383851
 Se         0.0465974103        4.4270318221       -3.5936563407
 Se         2.5167269427        3.6273521599       -0.0581806204
 Se         4.7705604635        2.4670139639        3.1233546104
 Se         0.0435933033        1.9323944164       -6.9695738842
 Se         2.2733127965        0.7623703678       -3.6584263160
 Se         4.3816175435       -0.2841549253       -0.0177063702
 Se         6.9670500347       -1.1290204494        3.5565582379
 Se         2.2410869402       -2.2702007814       -6.6798205275
 Se         4.3723294721       -3.1971869108       -3.2130677403
 Se         6.4331938555       -4.1098532443        0.4136420186
 Se         4.8503033307        7.5509093293       -0.7463548497
 Se         4.8776288797        4.5477652435       -4.0091414448
 Se         7.0830986217        3.5950723552       -0.6434567968
 Se         4.7810064642        1.5273410534       -7.5566303287
 Se         6.9188050062        0.6130038217       -3.7081238627
 Se         9.1066871843       -0.0609359671       -0.0919647969
  C         6.9955771113       -6.9586634775       -2.8583426301
  H         7.7780160969       -7.1271873265       -3.6573399650
  O         5.8389952916       -6.4652991204       -3.1445809228
  O         7.2920676004       -7.2683568805       -1.6893132711
  C         3.3939431960       -6.2668607509       -6.9513074648
  H         4.3245440932       -6.8689211647       -7.0591687882
  O         3.0202466073       -5.7860511295       -5.7843136273
  O         2.6220129789       -6.1746538788       -7.9242101403
  C         6.3116555909       -2.9071154185       -7.4921130606
  H         7.0978863851       -3.7212906458       -7.4285512081
  O         6.0096715894       -2.3219711192       -6.3505932827
  O         5.9403243477       -2.4750431756       -8.6116316973
  C         8.9837561036       -3.3697375837       -3.4349055328
  H         9.9249943929       -3.8864043165       -3.1840078659
  O         8.5659407989       -3.4209184445       -4.6048832464
  O         8.2714489672       -2.6971151254       -2.5207012617
  C         9.7902109758       -4.6282247391        2.1768529346
  H        10.6284324694       -5.3337138149        2.3552924638
  O         9.7484501532       -4.1824896055        0.9942458601
  O         9.0219926648       -4.5705851174        3.1873629795
  C        -2.8252708508       -8.8894178348        5.3653894160
  H        -2.3915771747       -9.8892286280        5.4446685031
  O        -1.9808601030       -7.9304545651        5.0436955975
  O        -4.0908415257       -8.7280019527        5.4030844137
  C         3.0047406823       -8.6887063298        5.2919739424
  H         2.6853413808       -9.0312323512        6.2714246943
  O         1.9985977812       -8.3553887881        4.5599054594
  O         4.2197147413       -8.6069092298        4.9235206312
  C         2.8732291572       -5.7090624943        8.2322507888
  H         2.4095730423       -6.3582442170        8.9295273658
  O         2.2236878889       -4.8031284854        7.6183804854
  O         4.1525405945       -5.8988692439        8.1468427445
  C        -2.5324052264       -5.9090323801        8.5168983878
  H        -2.0058427467       -6.7599986745        9.0204193621
  O        -1.9189018681       -5.2527647032        7.5983339134
  O        -3.6521974131       -5.4981014961        8.8936623702
  C        -6.8661340661        2.3082426882        7.3884767521
  H        -7.2433530482        3.2983326111        7.3747512577
  O        -5.6189307919        2.1553364867        7.5292857639
  O        -7.6694328727        1.3672322100        7.2032576312
  C        -4.1128935570        6.2776012356        7.2258109093
  H        -5.2184092536        6.2949225170        7.4003980339
  O        -3.5215502414        5.2331222329        6.7794929280
  O        -3.5956064510        7.4679880815        7.3184340370
  C        -6.2584500423        7.1467273309        4.0778865765
  H        -7.2018864753        7.1620259062        4.6862261037
  O        -5.8042352338        6.0508881806        3.6277903665
  O        -5.6141473350        8.2227071687        3.8530055117
  C        -9.2670155991        2.9624473135        4.4549609073
  H        -9.7760873251        3.8307467380        4.7753730710
  O        -8.0580447847        3.0137717908        4.1153681461
  O       -10.0869615960        1.9755230626        4.3964141791
  C        -9.5997958208       -3.5202239981        4.2555074891
  H       -10.6284324694       -3.6062117458        4.7363993397
  O        -9.3836198173       -2.7271085544        3.2939504316
  O        -8.6749593009       -4.3055307223        4.7674147240
  C        -5.4063829718       -6.0836320759       -6.1576393485
  H        -6.0390997038       -6.5934387315       -6.8768176703
  O        -5.3157147411       -6.5042627408       -4.9638375967
  O        -4.7997118332       -5.0931497246       -6.6842330004
  C        -7.4812021438       -7.2683192216       -1.8337008205
  H        -7.8430239833       -7.7214409635       -2.7403108931
  O        -6.3847231004       -6.5596142310       -1.8855223803
  O        -8.0870004405       -7.4369608581       -0.7449951352
  C        -9.2637717352       -3.4248031045       -2.1287629167
  H        -9.5435102925       -4.0726156799       -2.9624854104
  O        -8.1685743898       -2.7562864935       -2.2769679175
  O        -9.8293124780       -3.4993302663       -1.0042472880
  C        -6.7198117275       -1.5155721631       -7.0057360974
  H        -7.7266400310       -1.9701098143       -7.1795729881
  O        -6.3208037730       -1.2812141421       -5.7891801227
  O        -6.0546670581       -1.2647410752       -8.0219575549
  C        -1.9610306020        5.6962737072       -7.4797868569
  H        -1.8068881661        6.7616764611       -7.4798700689
  O        -2.4613788677        5.1953402046       -6.4147373301
  O        -1.7592038190        5.0404242691       -8.5376948407
  C        -1.7153677193        9.0065729983       -3.7807068554
  H        -1.3518565997        9.2891789052       -4.8285272378
  O        -1.7735635219        7.7204009534       -3.5311974415
  O        -1.9589811591        9.8892286280       -2.9296575010
  C         2.5176986766        8.6527359013       -4.1276241396
  H         2.7356319561        9.0838176512       -5.0545617483
  O         2.0941304229        7.4607563111       -4.0382054964
  O         2.6632020791        9.4136986823       -3.1567247192
  C         1.7405814703        5.3615037054       -8.2026998584
  H         1.4592813282        6.4433815072       -8.3446733349
  O         2.2712544771        5.0744229803       -7.0359036782
  O         1.5374971892        4.4786315137       -9.0204193621
  C         9.4791869119        2.6134878200        3.9079418032
  H         9.6264681644        3.4611325178        4.5867541287
  O         8.5294682966        2.7206869475        3.0468687327
  O        10.1884170796        1.5361363159        4.0354546634
  C         6.6320899766        7.0427804887        3.3240585285
  H         7.5183451153        7.1103565644        4.0025867163
  O         6.4921259472        6.1579139584        2.4473334656
  O         5.8014508194        7.8970951585        3.5804466065
  C         4.7468288793        5.8510846562        6.9391041765
  H         5.6837062732        5.7110173508        7.4566454645
  O         4.3315486404        4.9881730889        6.0840680113
  O         4.1390624477        6.9214380767        7.1338855679
  C         7.5642974957        1.7429307679        7.1823006621
  H         8.1116275708        2.6102062210        7.6466333920
  O         6.7423080014        2.0330978891        6.2208765696
  O         7.8434776238        0.5800715711        7.5931108165
     227
 i =        1, time =        1.000, E =        15.9747211468
 Cd        -8.6192550114        0.4794626373        3.4774629773
 Cd        -5.8721989835       -0.2570304895        7.1141223863
 Cd        -8.4082594694       -2.1545219678        0.3849665038
 Cd        -6.8924753076       -3.2914597659        3.9611494226
 Cd        -3.6902336890       -3.7007636307        7.3820496603
 Cd        -6.4421659358       -6.2356405615        0.4643581134
 Cd        -4.3122626435       -6.8294276635        3.9057307885
 Cd        -6.1166127481        3.8608824821        2.9061931124
 Cd        -3.6070279320        2.8813923370        6.5900234787
 Cd        -6.7533916676        1.1873242500       -0.3192533347
 Cd        -4.0446519860        0.0755109680        3.0500382292
 Cd        -1.7741980430       -0.3130066922        6.8333674021
 Cd        -6.3662321862       -1.4633579595       -3.4401621393
 Cd        -4.3617571973       -3.1215418277       -0.1744331373
 Cd        -2.2425404699       -3.6220624270        3.6335419817
 Cd         0.1782524555       -3.9617880416        7.0369352926
 Cd        -4.2697051703       -5.9876228115       -2.9988753742
 Cd        -2.2493060232       -6.7963009493        0.6789492806
 Cd         0.0675560144       -7.3034109934        3.8544268482
 Cd        -4.0797837093        7.4118312241        2.4189205245
 Cd        -1.6112185525        6.4884097169        6.2505263253
 Cd        -4.3324815083        4.8129772112       -0.6768758616
 Cd        -1.8303817579        3.6698234197        3.1587126583
 Cd         0.4898249499        3.1634662798        6.7201975259
 Cd        -4.5989814691        2.0001785805       -4.0894457171
 Cd        -2.1630717840        1.0184375020       -0.4517023832
 Cd         0.1383647020       -0.0679022676        3.1343216778
 Cd         2.6424249396       -0.6634446373        6.8955405714
 Cd        -4.1541166880       -0.5350447635       -6.9611060669
 Cd        -2.2032608528       -1.8488458571       -3.4903002671
 Cd         0.0357531470       -2.8475135943       -0.0251254425
 Cd         2.4398500816       -3.8220937247        3.5302981811
 Cd         4.5938524661       -4.2152921167        6.5947133461
 Cd        -2.6320269795       -4.5696820687       -6.0784331210
 Cd        -0.3608208533       -6.1206066691       -3.0632095356
 Cd         1.9866320756       -6.8521998116       -0.0373228283
 Cd         4.3579776790       -7.5041634770        3.0970987755
 Cd        -2.4315962008        8.2870107510       -1.2005925416
 Cd         0.1211383394        6.7913619709        2.0741079440
 Cd         2.2582462631        6.3881241196        5.9817932564
 Cd        -2.2737099614        5.5408574203       -4.1123006674
 Cd         0.1544308720        4.6149021561       -0.9820257756
 Cd         2.6163230796        3.7537949472        2.4616705242
 Cd         4.3940212284        2.5015744395        5.6450546154
 Cd        -2.3860108381        3.0934552534       -7.5401152496
 Cd        -0.1312192582        1.7709673255       -4.3472916784
 Cd         2.1530241085        0.8602719701       -0.9631790732
 Cd         4.3037887918       -0.4401682078        2.5253617334
 Cd         6.4919941987       -0.6515507915        6.0109490398
 Cd         0.4036995187       -0.5928852729       -7.0623835772
 Cd         2.1511242793       -1.8413652628       -3.9632944163
 Cd         4.1300550680       -2.9778616275       -0.5482624106
 Cd         6.9197811958       -3.7967242345        2.8861432276
 Cd         1.0696599621       -4.7686211008       -6.7909958545
 Cd         3.6507195980       -5.7624226095       -3.6174486209
 Cd         5.7325217938       -6.5635882898       -0.3325771910
 Cd         2.4545002073        8.1226285499       -1.1567285470
 Cd         4.4055852907        7.2900040285        1.7947110388
 Cd         2.3803930292        5.2451343670       -4.8083196903
 Cd         4.8185967595        4.7186746467       -1.4279025887
 Cd         6.7583067752        3.8403638000        2.0310804405
 Cd         2.6211316429        2.7831357504       -7.7034368173
 Cd         4.8485154848        1.7850337165       -4.5235303309
 Cd         6.7274766543        1.0644348001       -0.9630954128
 Cd         8.8867982834        0.4155116444        2.4350691273
 Cd         4.3615944783       -0.9234569291       -7.7311132961
 Cd         6.7425895969       -1.9756982062       -4.2011084499
 Cd         8.5292890864       -2.6208088635       -0.2526007925
 Se        -9.0558939261        0.2440545201        0.9177202648
 Se        -6.3729567033       -0.6563185238        4.4185539792
 Se        -3.9340275225       -1.3486295622        8.2983215790
 Se        -6.5829999883       -3.7428769739        1.3876119520
 Se        -4.5791091031       -4.2755603925        4.8603770039
 Se        -4.6124981697       -7.7780699242        1.5324716419
 Se        -6.6434460296        3.9856159991        0.4563548088
 Se        -4.0722196130        2.6207028982        3.9149043251
 Se        -1.6326776098        2.0124417926        7.9268336160
 Se        -6.7136917610        0.9841353289       -3.1648699757
 Se        -4.4074882733       -0.2114365528        0.3946914971
 Se        -2.0527514796       -1.1149517357        4.2598245924
 Se         0.4058617357       -1.5660035739        8.0661693204
 Se        -4.4163555838       -3.1308138321       -2.8053016583
 Se        -2.2368971438       -4.0917036337        0.9473221366
 Se         0.1527141718       -4.8124872365        4.4861190544
 Se        -2.4164069108       -7.4221697706       -2.0536962069
 Se        -0.0661302508       -7.8807288147        1.3096553076
 Se        -4.5538519456        7.5951932195       -0.0137935357
 Se        -1.8479410672        6.3636871344        3.5411778684
 Se         0.4039180602        5.8259346967        7.5880579092
 Se        -4.4675375068        4.5543931098       -3.3489986863
 Se        -2.0809141191        3.7150923532        0.3431757912
 Se         0.4986650239        2.6965049384        3.7294142601
 Se         2.7718825712        1.9959832180        7.6274121066
 Se        -4.6147187130        2.0750106453       -6.9051672268
 Se        -2.2792232236        0.8534344965       -3.1262759602
 Se         0.0149604480       -0.1633455950        0.3856043315
 Se         2.3130612106       -1.3180488852        3.9999635599
 Se         4.8636204905       -1.8841699992        7.7366874726
 Se        -2.0694927754       -1.9666073062       -6.4606601306
 Se        -0.0441238021       -3.1605511000       -2.8087540724
 Se         2.2320915645       -4.2317816818        0.7810913958
 Se         4.8364442266       -4.9538070169        4.0968016658
 Se        -0.7552675711       -6.2866692405       -5.8414578896
 Se         1.9250558618       -7.4802530204       -2.6082001947
 Se         4.2591314904       -8.3809766035        0.7356462109
 Se         0.0352994319        7.3690914879       -0.4916338231
 Se         2.3814998747        6.5251860154        3.1438505652
 Se         0.0441638604        4.4288547349       -3.5945139027
 Se         2.5165489672        3.6273573145       -0.0583518049
 Se         4.7734151522        2.4655206712        3.1249581207
 Se         0.0453610310        1.9309427205       -6.9715402642
 Se         2.2763870302        0.7653997489       -3.6572060750
 Se         4.3771865297       -0.2853104804       -0.0187884198
 Se         6.9679447244       -1.1296735314        3.5575659525
 Se         2.2379189700       -2.2692432610       -6.6842006633
 Se         4.3742781541       -3.1974593804       -3.2159639646
 Se         6.4329467763       -4.1119589019        0.4118898093
 Se         4.8535744848        7.5525395281       -0.7466149300
 Se         4.8779815080        4.5492932495       -4.0134528605
 Se         7.0867819512        3.5944872186       -0.6428814531
 Se         4.7835934603        1.5274438915       -7.5556233925
 Se         6.9201416047        0.6111502946       -3.7073485246
 Se         9.1079240304       -0.0623029836       -0.0931621237
  C         6.9966738116       -6.9498152194       -2.8612707015
  H         7.7649322095       -7.1224747738       -3.6684216540
  O         5.8471582047       -6.4687465539       -3.1397464868
  O         7.2941757376       -7.2767610533       -1.6986087163
  C         3.3950768421       -6.2672926198       -6.9491675762
  H         4.3444066225       -6.8936096686       -7.0753272229
  O         3.0194342281       -5.7920856142       -5.7861972015
  O         2.6194108991       -6.1703838287       -7.9252218573
  C         6.3106274651       -2.9078589798       -7.4910277058
  H         7.1299137504       -3.7048862282       -7.4466889051
  O         6.0083876389       -2.3192524420       -6.3511811090
  O         5.9409866661       -2.4758184982       -8.6133660408
  C         8.9774283836       -3.3708857401       -3.4296390453
  H         9.9250180562       -3.8774829974       -3.1826003730
  O         8.5703787867       -3.4165444217       -4.6050751520
  O         8.2730934851       -2.6980509883       -2.5231331624
  C         9.7980557704       -4.6251934954        2.1809906037
  H        10.6408655401       -5.3318691344        2.3887999993
  O         9.7503018166       -4.1825598325        0.9944919916
  O         9.0333946357       -4.5699098187        3.1878750948
  C        -2.8217236038       -8.8884184940        5.3598598612
  H        -2.4154187803       -9.9024293192        5.4343946394
  O        -1.9860869423       -7.9313834508        5.0433256866
  O        -4.0902644915       -8.7288725922        5.4056562755
  C         2.9969166598       -8.6916018160        5.2874298400
  H         2.6967725338       -9.0398269484        6.2934215078
  O         2.0024198219       -8.3597137315        4.5608139867
  O         4.2226239821       -8.6062055489        4.9244639064
  C         2.8792938859       -5.7053283357        8.2324118362
  H         2.3955873073       -6.3773024893        8.9303283437
  O         2.2224038081       -4.8109381834        7.6178530551
  O         4.1491961466       -5.9058785041        8.1557652307
  C        -2.5347084162       -5.9173502195        8.5219829583
  H        -2.0052498086       -6.7390725628        9.0096019785
  O        -1.9204435244       -5.2607005919        7.5992113133
  O        -3.6521703000       -5.5106644018        8.8946267001
  C        -6.8630639368        2.3027091665        7.3891797390
  H        -7.2086193538        3.3071349018        7.3885257928
  O        -5.6240848996        2.1598122956        7.5353310004
  O        -7.6710945573        1.3717904503        7.2003891084
  C        -4.1170028810        6.2827921519        7.2281729389
  H        -5.2418933127        6.2896177269        7.3832000201
  O        -3.5292766199        5.2303359635        6.7749986687
  O        -3.5923666121        7.4679534329        7.3187371424
  C        -6.2567339210        7.1462270145        4.0780995226
  H        -7.2111390447        7.1649409639        4.6689854642
  O        -5.8096450671        6.0506614580        3.6297284856
  O        -5.6162813234        8.2225697098        3.8520633829
  C        -9.2742002024        2.9617455942        4.4604833515
  H        -9.7855372140        3.8838940690        4.7760086716
  O        -8.0602894822        3.0118757454        4.1203759339
  O       -10.0837961801        1.9820500338        4.3939908508
  C        -9.6032660573       -3.5282124936        4.2551588921
  H       -10.5971720209       -3.6001750875        4.7566807035
  O        -9.3847438499       -2.7228144270        3.2947261851
  O        -8.6843608450       -4.3049081084        4.7656241667
  C        -5.4081385326       -6.0792208347       -6.1561805634
  H        -6.0546960796       -6.5859836395       -6.8890942905
  O        -5.3130244587       -6.5050839815       -4.9689061366
  O        -4.8018649770       -5.0936139032       -6.6862744017
  C        -7.4874853070       -7.2705522871       -1.8347976940
  H        -7.8388434959       -7.7173330376       -2.7530342297
  O        -6.3902246139       -6.5557351242       -1.8862155357
  O        -8.0735345440       -7.4422094876       -0.7471904374
  C        -9.2562591620       -3.4270053015       -2.1219697512
  H        -9.5270787848       -4.0663584857       -2.9594189931
  O        -8.1710063872       -2.7561465015       -2.2724930855
  O        -9.8255643547       -3.4951898857       -1.0105368633
  C        -6.7207023428       -1.5101567718       -7.0045870269
  H        -7.7450574417       -1.9674181007       -7.1698505571
  O        -6.3204946636       -1.2789142507       -5.8022018818
  O        -6.0666706666       -1.2649802774       -8.0173994442
  C        -1.9628948999        5.6954872300       -7.4853052587
  H        -1.7770888886        6.7764005651       -7.4923242406
  O        -2.4613086894        5.1887710188       -6.4111129923
  O        -1.7552407282        5.0444307782       -8.5303948505
  C        -1.7168808064        9.0074954887       -3.7839153223
  H        -1.3493405476        9.2660238074       -4.8465614694
  O        -1.7694453031        7.7230358797       -3.5256492098
  O        -1.9633994971        9.8910276407       -2.9424053264
  C         2.5062294955        8.6538758695       -4.1272908427
  H         2.7131102182        9.0638249498       -5.0476060874
  O         2.0943175238        7.4561906246       -4.0301172109
  O         2.6627488701        9.4125909940       -3.1574036524
  C         1.7411443529        5.3672412738       -8.1968558824
  H         1.4358383610        6.4416008070       -8.3632925476
  O         2.2776653896        5.0783414454       -7.0459732633
  O         1.5305878169        4.4853140101       -9.0190939609
  C         9.4768641411        2.6096254455        3.9000046832
  H         9.6131090334        3.4671477718        4.5843902861
  O         8.5305849062        2.7178070184        3.0512558321
  O        10.1901992927        1.5415919311        4.0350992741
  C         6.6326533994        7.0382909853        3.3282089789
  H         7.5082674956        7.1289998248        4.0070788575
  O         6.4956367497        6.1622614931        2.4476920454
  O         5.7975852128        7.9038900458        3.5835392660
  C         4.7447711744        5.8524768259        6.9353849778
  H         5.7085862008        5.7040540943        7.4370666698
  O         4.3298842478        4.9892871123        6.0818868550
  O         4.1497244071        6.9235525543        7.1395175690
  C         7.5603345182        1.7452816278        7.1878677869
  H         8.1158840311        2.6116602203        7.6593692779
  O         6.7476350934        2.0303625102        6.2252403334
  O         7.8447770786        0.5833062007        7.5907865252
     227
 i =        2, time =        2.000, E =        15.4755097813
 Cd        -8.6166789904        0.4776183405        3.4779460256
 Cd        -5.8733947262       -0.2569983257        7.1125630501
 Cd        -8.4090406020       -2.1566914059        0.3826213630
 Cd        -6.8887513175       -3.2925822799        3.9623843010