     227
 i =        0, time =        0.000, E =        -8.4284327026
 Cd        -8.6216924880        0.4810107428        3.4775887729
 Cd        -5.8723589632       -0.2566559957        7.1151373767
 Cd        -8.4076147924       -2.1531404527        0.3867588804
 Cd        -6.8957642261       -3.2896665849        3.9600318291
 Cd        -3.6930098048       -3.6992689615        7.3819491709
 Cd        -6.4429261463       -6.2347087238        0.4622469067
 Cd        -4.3123952394       -6.8285875372        3.9039095072
 Cd        -6.1141073353        3.8626235599        2.9066844924
 Cd        -3.6048790416        2.8797284733        6.5917986711
 Cd        -6.7531255596        1.1841266196       -0.3182182747
 Cd        -4.0437606329        0.0729837467        3.0511954168
 Cd        -1.7753257667       -0.3121054857        6.8316599018
 Cd        -6.3661028473       -1.4630135273       -3.4383357626
 Cd        -4.3602814436       -3.1214810613       -0.1759283953
 Cd        -2.2424276819       -3.6242998489        3.6335413818
 Cd         0.1757294635       -3.9625201566        7.0364714760
 Cd        -4.2692200317       -5.9860442556       -3.0005266361
 Cd        -2.2482225396       -6.7972628816        0.6786391664
 Cd         0.0669003827       -7.3030327295        3.8545421700
 Cd        -4.0792754193        7.4105475565        2.4175118797
 Cd        -1.6116442377        6.4880648240        6.2478272306
 Cd        -4.3308002626        4.8127262164       -0.6762739309
 Cd        -1.8326132452        3.6694977750        3.1598212265
 Cd         0.4939817277        3.1637060931        6.7202662426
 Cd        -4.5980154021        1.9988297698       -4.0880170010
 Cd        -2.1651194586        1.0165564496       -0.4536921834
 Cd         0.1376109507       -0.0659106884        3.1336818174
 Cd         2.6419074521       -0.6636939286        6.8958319365
 Cd        -4.1515129292       -0.5348426091       -6.9620217917
 Cd        -2.2012490343       -1.8491984656       -3.4894107829
 Cd         0.0359311218       -2.8494155653       -0.0264680683
 Cd         2.4407298775       -3.8224684908        3.5289587884
 Cd         4.5907434619       -4.2169180472        6.5928471603
 Cd        -2.6321953796       -4.5685798778       -6.0773989300
 Cd        -0.3638438279       -6.1221236347       -3.0620735359
 Cd         1.9882729153       -6.8506852632       -0.0376753302
 Cd         4.3604701588       -7.5063202656        3.0981086138
 Cd        -2.4313710890        8.2839908015       -1.2010761441
 Cd         0.1210964618        6.7915494583        2.0748938605
 Cd         2.2602783261        6.3879934074        5.9824457591
 Cd        -2.2743307721        5.5403016700       -4.1096429978
 Cd         0.1552258413        4.6164378819       -0.9814446932
 Cd         2.6173372932        3.7540356816        2.4616712460
 Cd         4.3934694910        2.5024270436        5.6448470259
 Cd        -2.3839877703        3.0961459608       -7.5397423510
 Cd        -0.1308699873        1.7716472388       -4.3458913396
 Cd         2.1522040622        0.8595996928       -0.9600505658
 Cd         4.3027041934       -0.4425155449        2.5248589789
 Cd         6.4943132815       -0.6514444341        6.0110723312
 Cd         0.4032906214       -0.5920449882       -7.0625722312
 Cd         2.1504065746       -1.8410095193       -3.9631978812
 Cd         4.1282053355       -2.9764966895       -0.5499119195
 Cd         6.9189885741       -3.8001688729        2.8840486736
 Cd         1.0693858855       -4.7693596381       -6.7909688629
 Cd         3.6529341800       -5.7620820022       -3.6150795142
 Cd         5.7341856059       -6.5625995016       -0.3323817960
 Cd         2.4532379782        8.1225833618       -1.1556872380
 Cd         4.4025673150        7.2904811152        1.7928276254
 Cd         2.3800547108        5.2453457502       -4.8107637235
 Cd         4.8184663347        4.7191125514       -1.4277792117
 Cd         6.7589411702        3.8390778732        2.0295448973
 Cd         2.6210634084        2.7844913241       -7.7035228004
 Cd         4.8495943395        1.7843685348       -4.5225056138
 Cd         6.7261500983        1.0662237140       -0.9642295531
 Cd         8.8881450478        0.4141445330        2.4369093904
 Cd         4.3615782352       -0.9213178924       -7.7328888960
 Cd         6.7438649008       -1.9767569930       -4.2031112584
 Cd         8.5272445020       -2.6218905711       -0.2551455218
 Se        -9.0557725106        0.2424574140        0.9180313808
 Se        -6.3745872764       -0.6570220647        4.4225742627
 Se        -3.9358548519       -1.3506397678        8.2925868769
 Se        -6.5830028390       -3.7408669090        1.3890860046
 Se        -4.5802302415       -4.2716541219        4.8585926421
 Se        -4.6110671623       -7.7792240778        1.5343213278
 Se        -6.6407812351        3.9866809498        0.4586064126
 Se        -4.0705866514        2.6241591830        3.9150270775
 Se        -1.6315747320        2.0143859544        7.9219454430
 Se        -6.7106235468        0.9827493806       -3.1628202938
 Se        -4.4077684895       -0.2106461950        0.3970531668
 Se        -2.0534879979       -1.1190641497        4.2604482105
 Se         0.4069246601       -1.5676855049        8.0617057342
 Se        -4.4126107232       -3.1307459794       -2.8028288282
 Se        -2.2371864822       -4.0884616040        0.9473336128
 Se         0.1541797359       -4.8148952714        4.4843326207
 Se        -2.4147106009       -7.4199706225       -2.0529393442
 Se        -0.0662571417       -7.8800811154        1.3078284855
 Se        -4.5519687636        7.5920037884       -0.0122560791
 Se        -1.8482840651        6.3647212661        3.5390459072
 Se         0.4006735392        5.8241498358        7.5878867146
 Se        -4.4655945585        4.5529209660       -3.3484418515
 Se        -2.0798083538        3.7153034916        0.3451575142
 Se         0.4973892782        2.6967113851        3.7286137790
 Se         2.7724753484        1.9958260876        7.6298945277
 Se        -4.6126224962        2.0736182894       -6.9031574659
 Se        -2.2770211290        0.8531533747       -3.1284312065
 Se         0.0138865169       -0.1636477002        0.3858468104
 Se         2.3115473387       -1.3198431962        4.0017354986
 Se         4.8624545925       -1.8855864388        7.7371297607
 Se        -2.0700877949       -1.9675257511       -6.4603372509
 Se        -0.0447057629       -3.1582708631       -2.8090856920
 Se         2.2343306950       -4.2299664240        0.7817840723
 Se         4.8342987615       -4.9516929708        4.0974643468
 Se        -0.7556003326       -6.2829108386       -5.8406699955
 Se         1.9243057511       -7.4784768035       -2.6074198353
 Se         4.2543989663       -8.3809591814        0.7363809319
 Se         0.0386925703        7.3677075300       -0.4939635450
 Se         2.3791568525        6.5289221229        3.1400383851
 Se         0.0465974103        4.4270318221       -3.5936563407
 Se         2.5167269427        3.6273521599       -0.0581806204
 Se         4.7705604635        2.4670139639        3.1233546104
 Se         0.0435933033        1.9323944164       -6.9695738842
 Se         2.2733127965        0.7623703678       -3.6584263160
 Se         4.3816175435       -0.2841549253       -0.0177063702
 Se         6.9670500347       -1.1290204494        3.5565582379
 Se         2.2410869402       -2.2702007814       -6.6798205275
 Se         4.3723294721       -3.1971869108       -3.2130677403
 Se         6.4331938555       -4.1098532443        0.4136420186
 Se         4.8503033307        7.5509093293       -0.7463548497
 Se         4.8776288797        4.5477652435       -4.0091414448
 Se         7.0830986217        3.5950723552       -0.6434567968
 Se         4.7810064642        1.5273410534       -7.5566303287
 Se         6.9188050062        0.6130038217       -3.7081238627
 Se         9.1066871843       -0.0609359671       -0.0919647969
  C         6.9955771113       -6.9586634775       -2.8583426301
  H         7.7780160969       -7.1271873265       -3.6573399650
  O         5.8389952916       -6.4652991204       -3.1445809228
  O         7.2920676004       -7.2683568805       -1.6893132711
  C         3.3939431960       -6.2668607509       -6.9513074648
  H         4.3245440932       -6.8689211647       -7.0591687882
  O         3.0202466073       -5.7860511295       -5.7843136273
  O         2.6220129789       -6.1746538788       -7.9242101403
  C         6.3116555909       -2.9071154185       -7.4921130606
  H         7.0978863851       -3.7212906458       -7.4285512081
  O         6.0096715894       -2.3219711192       -6.3505932827
  O         5.9403243477       -2.4750431756       -8.6116316973
  C         8.9837561036       -3.3697375837       -3.4349055328
  H         9.9249943929       -3.8864043165       -3.1840078659
  O         8.5659407989       -3.4209184445       -4.6048832464
  O         8.2714489672       -2.6971151254       -2.5207012617
  C         9.7902109758       -4.6282247391        2.1768529346
  H        10.6284324694       -5.3337138149        2.3552924638
  O         9.7484501532       -4.1824896055        0.9942458601
  O         9.0219926648       -4.5705851174        3.1873629795
  C        -2.8252708508       -8.8894178348        5.3653894160
  H        -2.3915771747       -9.8892286280        5.4446685031
  O        -1.9808601030       -7.9304545651        5.0436955975
  O        -4.0908415257       -8.7280019527        5.4030844137
  C         3.0047406823       -8.6887063298        5.2919739424
  H         2.6853413808       -9.0312323512        6.2714246943
  O         1.9985977812       -8.3553887881        4.5599054594
  O         4.2197147413       -8.6069092298        4.9235206312
  C         2.8732291572       -5.7090624943        8.2322507888
  H         2.4095730423       -6.3582442170        8.9295273658
  O         2.2236878889       -4.8031284854        7.6183804854
  O         4.1525405945       -5.8988692439        8.1468427445
  C        -2.5324052264       -5.9090323801        8.5168983878
  H        -2.0058427467       -6.7599986745        9.0204193621
  O        -1.9189018681       -5.2527647032        7.5983339134
  O        -3.6521974131       -5.4981014961        8.8936623702
  C        -6.8661340661        2.3082426882        7.3884767521
  H        -7.2433530482        3.2983326111        7.3747512577
  O        -5.6189307919        2.1553364867        7.5292857639
  O        -7.6694328727        1.3672322100        7.2032576312
  C        -4.1128935570        6.2776012356        7.2258109093
  H        -5.2184092536        6.2949225170        7.4003980339
  O        -3.5215502414        5.2331222329        6.7794929280
  O        -3.5956064510        7.4679880815        7.3184340370
  C        -6.2584500423        7.1467273309        4.0778865765
  H        -7.2018864753        7.1620259062        4.6862261037
  O        -5.8042352338        6.0508881806        3.6277903665
  O        -5.6141473350        8.2227071687        3.8530055117
  C        -9.2670155991        2.9624473135        4.4549609073
  H        -9.7760873251        3.8307467380        4.7753730710
  O        -8.0580447847        3.0137717908        4.1153681461
  O       -10.0869615960        1.9755230626        4.3964141791
  C        -9.5997958208       -3.5202239981        4.2555074891
  H       -10.6284324694       -3.6062117458        4.7363993397
  O        -9.3836198173       -2.7271085544        3.2939504316
  O        -8.6749593009       -4.3055307223        4.7674147240
  C        -5.4063829718       -6.0836320759       -6.1576393485
  H        -6.0390997038       -6.5934387315       -6.8768176703
  O        -5.3157147411       -6.5042627408       -4.9638375967
  O        -4.7997118332       -5.0931497246       -6.6842330004
  C        -7.4812021438       -7.2683192216       -1.8337008205
  H        -7.8430239833       -7.7214409635       -2.7403108931
  O        -6.3847231004       -6.5596142310       -1.8855223803
  O        -8.0870004405       -7.4369608581       -0.7449951352
  C        -9.2637717352       -3.4248031045       -2.1287629167
  H        -9.5435102925       -4.0726156799       -2.9624854104
  O        -8.1685743898       -2.7562864935       -2.2769679175
  O        -9.8293124780       -3.4993302663       -1.0042472880
  C        -6.7198117275       -1.5155721631       -7.0057360974
  H        -7.7266400310       -1.9701098143       -7.1795729881
  O        -6.3208037730       -1.2812141421       -5.7891801227
  O        -6.0546670581       -1.2647410752       -8.0219575549
  C        -1.9610306020        5.6962737072       -7.4797868569
  H        -1.8068881661        6.7616764611       -7.4798700689
  O        -2.4613788677        5.1953402046       -6.4147373301
  O        -1.7592038190        5.0404242691       -8.5376948407
  C        -1.7153677193        9.0065729983       -3.7807068554
  H        -1.3518565997        9.2891789052       -4.8285272378
  O        -1.7735635219        7.7204009534       -3.5311974415
  O        -1.9589811591        9.8892286280       -2.9296575010
  C         2.5176986766        8.6527359013       -4.1276241396
  H         2.7356319561        9.0838176512       -5.0545617483
  O         2.0941304229        7.4607563111       -4.0382054964
  O         2.6632020791        9.4136986823       -3.1567247192
  C         1.7405814703        5.3615037054       -8.2026998584
  H         1.4592813282        6.4433815072       -8.3446733349
  O         2.2712544771        5.0744229803       -7.0359036782
  O         1.5374971892        4.4786315137       -9.0204193621
  C         9.4791869119        2.6134878200        3.9079418032
  H         9.6264681644        3.4611325178        4.5867541287
  O         8.5294682966        2.7206869475        3.0468687327
  O        10.1884170796        1.5361363159        4.0354546634
  C         6.6320899766        7.0427804887        3.3240585285
  H         7.5183451153        7.1103565644        4.0025867163
  O         6.4921259472        6.1579139584        2.4473334656
  O         5.8014508194        7.8970951585        3.5804466065
  C         4.7468288793        5.8510846562        6.9391041765
  H         5.6837062732        5.7110173508        7.4566454645
  O         4.3315486404        4.9881730889        6.0840680113
  O         4.1390624477        6.9214380767        7.1338855679
  C         7.5642974957        1.7429307679        7.1823006621
  H         8.1116275708        2.6102062210        7.6466333920
  O         6.7423080014        2.0330978891        6.2208765696
  O         7.8434776238        0.5800715711        7.5931108165
     227
 i =        1, time =        1.000, E =        -8.4377293689
 Cd        -8.6193391832        0.4796325031        3.4771776930
 Cd        -5.8715513487       -0.2571964145        7.1143876513
 Cd        -8.4082138876       -2.1541437894        0.3852284716
 Cd        -6.8927234096       -3.2917989862        3.9610987210
 Cd        -3.6901794404       -3.7003954321        7.3823622217
 Cd        -6.4419756876       -6.2357468111        0.4642826173
 Cd        -4.3123499555       -6.8296063812        3.9052290366
 Cd        -6.1163810547        3.8609255013        2.9055778841
 Cd        -3.6066260851        2.8812297477        6.5903853381
 Cd        -6.7534194536        1.1872330888       -0.3192206070
 Cd        -4.0444141722        0.0755170957        3.0501743048
 Cd        -1.7741906649       -0.3125857213        6.8335571721
 Cd        -6.3660888127       -1.4624621545       -3.4401687830
 Cd        -4.3613580744       -3.1217783183       -0.1745526778
 Cd        -2.2426064573       -3.6215828257        3.6336018377
 Cd         0.1786883477       -3.9615938753        7.0369290693
 Cd        -4.2693721033       -5.9882004825       -2.9988623954
 Cd        -2.2487237903       -6.7966045422        0.6791675359
 Cd         0.0677803131       -7.3029976315        3.8542339179
 Cd        -4.0802655808        7.4119313113        2.4182841623
 Cd        -1.6107883050        6.4879447695        6.2509420024
 Cd        -4.3325168363        4.8128100379       -0.6769429265
 Cd        -1.8303888915        3.6695984918        3.1589354050
 Cd         0.4898046893        3.1633516428        6.7205071300
 Cd        -4.5995972203        2.0001031545       -4.0890208044
 Cd        -2.1628901207        1.0181319319       -0.4517482657
 Cd         0.1384251895       -0.0681600382        3.1344028666
 Cd         2.6424451378       -0.6635580615        6.8958755848
 Cd        -4.1540676007       -0.5351479695       -6.9611268840
 Cd        -2.2031764223       -1.8490919093       -3.4900341879
 Cd         0.0358056838       -2.8474752163       -0.0250980541
 Cd         2.4397164898       -3.8215682552        3.5304589139
 Cd         4.5938409896       -4.2151953446        6.5946720450
 Cd        -2.6316971031       -4.5699629356       -6.0785361041
 Cd        -0.3609636361       -6.1210324800       -3.0631295859
 Cd         1.9864150319       -6.8523294443       -0.0374550235
 Cd         4.3578763190       -7.5050113482        3.0973879758
 Cd        -2.4320383588        8.2867361129       -1.2003542644
 Cd         0.1211450872        6.7911454518        2.0747642740
 Cd         2.2580935381        6.3879444823        5.9826067472
 Cd        -2.2740250790        5.5405527621       -4.1121239968
 Cd         0.1544593112        4.6148613838       -0.9823232642
 Cd         2.6165120114        3.7533708111        2.4610514255
 Cd         4.3939176253        2.5015242085        5.6447028392
 Cd        -2.3864571384        3.0936975358       -7.5399022127
 Cd        -0.1312613626        1.7709146365       -4.3474114737
 Cd         2.1531558689        0.8600286494       -0.9631975626
 Cd         4.3034727895       -0.4402587367        2.5248321664
 Cd         6.4920182966       -0.6517779778        6.0105007553
 Cd         0.4042410761       -0.5927822362       -7.0621391092
 Cd         2.1512978499       -1.8411015234       -3.9633266533
 Cd         4.1299687366       -2.9780136889       -0.5482304513
 Cd         6.9198159053       -3.7969682526        2.8855544188
 Cd         1.0695481665       -4.7691727132       -6.7906854094
 Cd         3.6506237329       -5.7625066433       -3.6177024843
 Cd         5.7329419721       -6.5640033185       -0.3327626803
 Cd         2.4550951862        8.1223091060       -1.1566061353
 Cd         4.4053467998        7.2898003655        1.7948202945
 Cd         2.3804032343        5.2451992832       -4.8087058712
 Cd         4.8189599463        4.7184597892       -1.4283835111
 Cd         6.7582282276        3.8401568921        2.0311383552
 Cd         2.6217729431        2.7829055527       -7.7033782706
 Cd         4.8493053152        1.7846791703       -4.5231448957
 Cd         6.7277000271        1.0649928762       -0.9631027524
 Cd         8.8867419715        0.4155712912        2.4348053288
 Cd         4.3617850824       -0.9226415856       -7.7309320368
 Cd         6.7427635782       -1.9756169664       -4.2012628641
 Cd         8.5291338846       -2.6208019671       -0.2527791025
 Se        -9.0548271951        0.2429269273        0.9182965598
 Se        -6.3727738355       -0.6564781370        4.4183182781
 Se        -3.9345141532       -1.3489277213        8.2965995810
 Se        -6.5831247382       -3.7425433825        1.3880661505
 Se        -4.5790826409       -4.2748644939        4.8597558620
 Se        -4.6122427118       -7.7766480542        1.5328235974
 Se        -6.6423169303        3.9855698008        0.4576566212
 Se        -4.0719810037        2.6208452221        3.9143198104
 Se        -1.6333004070        2.0117654893        7.9251982331
 Se        -6.7117527001        0.9829428517       -3.1654497750
 Se        -4.4070879563       -0.2111976522        0.3948837469
 Se        -2.0531248721       -1.1153354053        4.2594042843
 Se         0.4059982193       -1.5661459385        8.0651249190
 Se        -4.4160903543       -3.1300203171       -2.8046922250
 Se        -2.2374270945       -4.0915962876        0.9472106393
 Se         0.1530473794       -4.8127494639        4.4858173755
 Se        -2.4165594902       -7.4206802635       -2.0539408101
 Se        -0.0669287582       -7.8792022021        1.3095435497
 Se        -4.5522020819        7.5948544957       -0.0126416150
 Se        -1.8468062319        6.3633123778        3.5401156516
 Se         0.4037120304        5.8261553003        7.5859617498
 Se        -4.4660930180        4.5539793793       -3.3489560482
 Se        -2.0809866616        3.7152470982        0.3431785049
 Se         0.4982451773        2.6969879361        3.7287060968
 Se         2.7718016780        1.9958771247        7.6262657104
 Se        -4.6132437041        2.0747860809       -6.9049186522
 Se        -2.2789046219        0.8535230026       -3.1261055080
 Se         0.0145678916       -0.1632252549        0.3854043503
 Se         2.3129722821       -1.3189004722        3.9990447752
 Se         4.8631719361       -1.8842963589        7.7354643314
 Se        -2.0701871107       -1.9664245671       -6.4603906008
 Se        -0.0447041033       -3.1599539234       -2.8087902761
 Se         2.2323209027       -4.2314749646        0.7809438051
 Se         4.8362471970       -4.9531208924        4.0967245908
 Se        -0.7551483331       -6.2848940396       -5.8413960279
 Se         1.9250154738       -7.4790972262       -2.6076519058
 Se         4.2593569725       -8.3792545852        0.7363756949
 Se         0.0356300310        7.3686403647       -0.4913528243
 Se         2.3809418471        6.5252154538        3.1425219710
 Se         0.0437353325        4.4288370340       -3.5940205162
 Se         2.5163986979        3.6274371018       -0.0568869356
 Se         4.7727296616        2.4661654396        3.1253194861
 Se         0.0455170011        1.9300115253       -6.9705453568
 Se         2.2758512698        0.7648576771       -3.6570755705
 Se         4.3766749356       -0.2853650820       -0.0178377690
 Se         6.9677290650       -1.1294403489        3.5582192658
 Se         2.2370372319       -2.2682220282       -6.6837831178
 Se         4.3737624661       -3.1974947218       -3.2156780231
 Se         6.4331546644       -4.1116960249        0.4129328926
 Se         4.8516209283        7.5524242063       -0.7459481188
 Se         4.8775058748        4.5489991498       -4.0122768621
 Se         7.0856410382        3.5934960859       -0.6429012062
 Se         4.7817650631        1.5264595755       -7.5555490960
 Se         6.9186184151        0.6112217680       -3.7073720172
 Se         9.1069099579       -0.0626796423       -0.0923629820
  C         6.9966793654       -6.9498455634       -2.8612692955
  H         7.7649322095       -7.1224747738       -3.6684216540
  O         5.8440874536       -6.4672668851       -3.1400847875
  O         7.2887119718       -7.2742232931       -1.6937665323
  C         3.3950633322       -6.2673092304       -6.9491839982
  H         4.3444066225       -6.8936096686       -7.0753272229
  O         3.0188451942       -5.7909277653       -5.7821208535
  O         2.6177621019       -6.1689615131       -7.9240237631
  C         6.3106280524       -2.9078487990       -7.4910617897
  H         7.1299137504       -3.7048862282       -7.4466889051
  O         6.0085317152       -2.3182220287       -6.3475412018
  O         5.9394138436       -2.4742899796       -8.6124992110
  C         8.9774527370       -3.3708796035       -3.4296509783
  H         9.9250180562       -3.8774829974       -3.1826003730
  O         8.5683381922       -3.4149212601       -4.6046369114
  O         8.2717716790       -2.6967197777       -2.5201330327
  C         9.7980787943       -4.6252025303        2.1809997367
  H        10.6408655401       -5.3318691344        2.3887999993
  O         9.7471946508       -4.1805674056        0.9926456332
  O         9.0287401562       -4.5681824446        3.1870682195
  C        -2.8217327847       -8.8884425877        5.3598597029
  H        -2.4154187803       -9.9024293192        5.4343946394
  O        -1.9847740521       -7.9306731055        5.0423579611
  O        -4.0904614781       -8.7274881126        5.4044528020
  C         2.9969230170       -8.6916272290        5.2874259039
  H         2.6967725338       -9.0398269484        6.2934215078
  O         1.9994219514       -8.3579278941        4.5594596368
  O         4.2233494551       -8.6007687212        4.9157828463
  C         2.8793067072       -5.7053266690        8.2324314997
  H         2.3955873073       -6.3773024893        8.9303283437
  O         2.2190819133       -4.8088913407        7.6164001468
  O         4.1498219629       -5.9035501243        8.1536713254
  C        -2.5347143440       -5.9173473228        8.5220122605
  H        -2.0052498086       -6.7390725628        9.0096019785
  O        -1.9213751667       -5.2584155058        7.5983563400
  O        -3.6522418066       -5.5084793758        8.8928261025
  C        -6.8630689473        2.3027052289        7.3892131603
  H        -7.2086193538        3.3071349018        7.3885257928
  O        -5.6213845772        2.1591305422        7.5337555890
  O        -7.6696022329        1.3703091821        7.1999612166
  C        -4.1169949529        6.2828071925        7.2281961363
  H        -5.2418933127        6.2896177269        7.3832000201
  O        -3.5267546593        5.2290789317        6.7738714352
  O        -3.5911257426        7.4673543084        7.3180829907
  C        -6.2567453468        7.1462476623        4.0780909322
  H        -7.2111390447        7.1649409639        4.6689854642
  O        -5.8090688492        6.0479397846        3.6279237084
  O        -5.6128830091        8.2207898953        3.8488271371
  C        -9.2742262438        2.9617602587        4.4604754043
  H        -9.7855372140        3.8838940690        4.7760086716
  O        -8.0588678344        3.0119011956        4.1193053437
  O       -10.0811906655        1.9793557927        4.3922485280
  C        -9.6032838782       -3.5282225702        4.2551694838
  H       -10.5971720209       -3.6001750875        4.7566807035
  O        -9.3833311538       -2.7227912997        3.2942774881
  O        -8.6787897547       -4.3017906022        4.7630670308
  C        -5.4081381750       -6.0792381544       -6.1561990584
  H        -6.0546960796       -6.5859836395       -6.8890942905
  O        -5.3111051321       -6.5041324502       -4.9653161659
  O        -4.7985162118       -5.0927744379       -6.6853437011
  C        -7.4874965064       -7.2705801077       -1.8347929840
  H        -7.8388434959       -7.7173330376       -2.7530342297
  O        -6.3887866391       -6.5550186954       -1.8843600750
  O        -8.0717540082       -7.4409591896       -0.7458752822
  C        -9.2562846280       -3.4269956856       -2.1219779198
  H        -9.5270787848       -4.0663584857       -2.9594189931
  O        -8.1698611039       -2.7554263114       -2.2727060483
  O        -9.8242704394       -3.4940043465       -1.0092487391
  C        -6.7207125999       -1.5101402021       -7.0046053508
  H        -7.7450574417       -1.9674181007       -7.1698505571
  O        -6.3198586810       -1.2781290950       -5.7991170669
  O        -6.0634200515       -1.2635100877       -8.0155817482
  C        -1.9629137734        5.6954915581       -7.4853230316
  H        -1.7770888886        6.7764005651       -7.4923242406
  O        -2.4611941950        5.1867781756       -6.4087847199
  O        -1.7563670470        5.0405545772       -8.5284302391
  C        -1.7168993930        9.0075161664       -3.7839133089
  H        -1.3493405476        9.2660238074       -4.8465614694
  O        -1.7700312416        7.7195870832       -3.5246533068
  O        -1.9637424759        9.8896351653       -2.9408943911
  C         2.5062457168        8.6538938074       -4.1272904837
  H         2.7131102182        9.0638249498       -5.0476060874
  O         2.0944587154        7.4533311654       -4.0306998756
  O         2.6627613868        9.4112126746       -3.1553097809
  C         1.7411662786        5.3672436916       -8.1968730732
  H         1.4358383610        6.4416008070       -8.3632925476
  O         2.2781454083        5.0766582246       -7.0408914275
  O         1.5312172925        4.4834187669       -9.0176317078
  C         9.4768956444        2.6096291063        3.8999960475
  H         9.6131090334        3.4671477718        4.5843902861
  O         8.5280811339        2.7173706624        3.0492448292
  O        10.1886028903        1.5401972609        4.0331642468
  C         6.6326650758        7.0383148699        3.3281988313
  H         7.5082674956        7.1289998248        4.0070788575
  O         6.4945252151        6.1604803751        2.4465897665
  O         5.7955544308        7.9030421620        3.5813643391
  C         4.7447644275        5.8524874245        6.9354083168
  H         5.7085862008        5.7040540943        7.4370666698
  O         4.3286295318        4.9885695442        6.0815415107
  O         4.1458011611        6.9224479396        7.1372540691
  C         7.5603401107        1.7452804702        7.1878944224
  H         8.1158840311        2.6116602203        7.6593692779
  O         6.7459211761        2.0302486410        6.2244794266
  O         7.8435498208        0.5821859028        7.5895759386
     227
 i =        2, time =        2.000, E =        -8.4529551231
 Cd        -8.6169844446        0.4782784121        3.4767985577
 Cd        -5.8708265040       -0.2576606567        7.1136142091
 Cd        -8.4088586892       -2.1552107649        0.3836498252
 Cd        -6.8896699728       -3.2938947868        3.9621588294