     227
 i =        0, time =        0.000, E =        13.0750139444
 Cd        -8.6216924880        0.4810107428        3.4775887729
 Cd        -5.8723589632       -0.2566559957        7.1151373767
 Cd        -8.4076147924       -2.1531404527        0.3867588804
 Cd        -6.8957642261       -3.2896665849        3.9600318291
 Cd        -3.6930098048       -3.6992689615        7.3819491709
 Cd        -6.4429261463       -6.2347087238        0.4622469067
 Cd        -4.3123952394       -6.8285875372        3.9039095072
 Cd        -6.1141073353        3.8626235599        2.9066844924
 Cd        -3.6048790416        2.8797284733        6.5917986711
 Cd        -6.7531255596        1.1841266196       -0.3182182747
 Cd        -4.0437606329        0.0729837467        3.0511954168
 Cd        -1.7753257667       -0.3121054857        6.8316599018
 Cd        -6.3661028473       -1.4630135273       -3.4383357626
 Cd        -4.3602814436       -3.1214810613       -0.1759283953
 Cd        -2.2424276819       -3.6242998489        3.6335413818
 Cd         0.1757294635       -3.9625201566        7.0364714760
 Cd        -4.2692200317       -5.9860442556       -3.0005266361
 Cd        -2.2482225396       -6.7972628816        0.6786391664
 Cd         0.0669003827       -7.3030327295        3.8545421700
 Cd        -4.0792754193        7.4105475565        2.4175118797
 Cd        -1.6116442377        6.4880648240        6.2478272306
 Cd        -4.3308002626        4.8127262164       -0.6762739309
 Cd        -1.8326132452        3.6694977750        3.1598212265
 Cd         0.4939817277        3.1637060931        6.7202662426
 Cd        -4.5980154021        1.9988297698       -4.0880170010
 Cd        -2.1651194586        1.0165564496       -0.4536921834
 Cd         0.1376109507       -0.0659106884        3.1336818174
 Cd         2.6419074521       -0.6636939286        6.8958319365
 Cd        -4.1515129292       -0.5348426091       -6.9620217917
 Cd        -2.2012490343       -1.8491984656       -3.4894107829
 Cd         0.0359311218       -2.8494155653       -0.0264680683
 Cd         2.4407298775       -3.8224684908        3.5289587884
 Cd         4.5907434619       -4.2169180472        6.5928471603
 Cd        -2.6321953796       -4.5685798778       -6.0773989300
 Cd        -0.3638438279       -6.1221236347       -3.0620735359
 Cd         1.9882729153       -6.8506852632       -0.0376753302
 Cd         4.3604701588       -7.5063202656        3.0981086138
 Cd        -2.4313710890        8.2839908015       -1.2010761441
 Cd         0.1210964618        6.7915494583        2.0748938605
 Cd         2.2602783261        6.3879934074        5.9824457591
 Cd        -2.2743307721        5.5403016700       -4.1096429978
 Cd         0.1552258413        4.6164378819       -0.9814446932
 Cd         2.6173372932        3.7540356816        2.4616712460
 Cd         4.3934694910        2.5024270436        5.6448470259
 Cd        -2.3839877703        3.0961459608       -7.5397423510
 Cd        -0.1308699873        1.7716472388       -4.3458913396
 Cd         2.1522040622        0.8595996928       -0.9600505658
 Cd         4.3027041934       -0.4425155449        2.5248589789
 Cd         6.4943132815       -0.6514444341        6.0110723312
 Cd         0.4032906214       -0.5920449882       -7.0625722312
 Cd         2.1504065746       -1.8410095193       -3.9631978812
 Cd         4.1282053355       -2.9764966895       -0.5499119195
 Cd         6.9189885741       -3.8001688729        2.8840486736
 Cd         1.0693858855       -4.7693596381       -6.7909688629
 Cd         3.6529341800       -5.7620820022       -3.6150795142
 Cd         5.7341856059       -6.5625995016       -0.3323817960
 Cd         2.4532379782        8.1225833618       -1.1556872380
 Cd         4.4025673150        7.2904811152        1.7928276254
 Cd         2.3800547108        5.2453457502       -4.8107637235
 Cd         4.8184663347        4.7191125514       -1.4277792117
 Cd         6.7589411702        3.8390778732        2.0295448973
 Cd         2.6210634084        2.7844913241       -7.7035228004
 Cd         4.8495943395        1.7843685348       -4.5225056138
 Cd         6.7261500983        1.0662237140       -0.9642295531
 Cd         8.8881450478        0.4141445330        2.4369093904
 Cd         4.3615782352       -0.9213178924       -7.7328888960
 Cd         6.7438649008       -1.9767569930       -4.2031112584
 Cd         8.5272445020       -2.6218905711       -0.2551455218
 Se        -9.0557725106        0.2424574140        0.9180313808
 Se        -6.3745872764       -0.6570220647        4.4225742627
 Se        -3.9358548519       -1.3506397678        8.2925868769
 Se        -6.5830028390       -3.7408669090        1.3890860046
 Se        -4.5802302415       -4.2716541219        4.8585926421
 Se        -4.6110671623       -7.7792240778        1.5343213278
 Se        -6.6407812351        3.9866809498        0.4586064126
 Se        -4.0705866514        2.6241591830        3.9150270775
 Se        -1.6315747320        2.0143859544        7.9219454430
 Se        -6.7106235468        0.9827493806       -3.1628202938
 Se        -4.4077684895       -0.2106461950        0.3970531668
 Se        -2.0534879979       -1.1190641497        4.2604482105
 Se         0.4069246601       -1.5676855049        8.0617057342
 Se        -4.4126107232       -3.1307459794       -2.8028288282
 Se        -2.2371864822       -4.0884616040        0.9473336128
 Se         0.1541797359       -4.8148952714        4.4843326207
 Se        -2.4147106009       -7.4199706225       -2.0529393442
 Se        -0.0662571417       -7.8800811154        1.3078284855
 Se        -4.5519687636        7.5920037884       -0.0122560791
 Se        -1.8482840651        6.3647212661        3.5390459072
 Se         0.4006735392        5.8241498358        7.5878867146
 Se        -4.4655945585        4.5529209660       -3.3484418515
 Se        -2.0798083538        3.7153034916        0.3451575142
 Se         0.4973892782        2.6967113851        3.7286137790
 Se         2.7724753484        1.9958260876        7.6298945277
 Se        -4.6126224962        2.0736182894       -6.9031574659
 Se        -2.2770211290        0.8531533747       -3.1284312065
 Se         0.0138865169       -0.1636477002        0.3858468104
 Se         2.3115473387       -1.3198431962        4.0017354986
 Se         4.8624545925       -1.8855864388        7.7371297607
 Se        -2.0700877949       -1.9675257511       -6.4603372509
 Se        -0.0447057629       -3.1582708631       -2.8090856920
 Se         2.2343306950       -4.2299664240        0.7817840723
 Se         4.8342987615       -4.9516929708        4.0974643468
 Se        -0.7556003326       -6.2829108386       -5.8406699955
 Se         1.9243057511       -7.4784768035       -2.6074198353
 Se         4.2543989663       -8.3809591814        0.7363809319
 Se         0.0386925703        7.3677075300       -0.4939635450
 Se         2.3791568525        6.5289221229        3.1400383851
 Se         0.0465974103        4.4270318221       -3.5936563407
 Se         2.5167269427        3.6273521599       -0.0581806204
 Se         4.7705604635        2.4670139639        3.1233546104
 Se         0.0435933033        1.9323944164       -6.9695738842
 Se         2.2733127965        0.7623703678       -3.6584263160
 Se         4.3816175435       -0.2841549253       -0.0177063702
 Se         6.9670500347       -1.1290204494        3.5565582379
 Se         2.2410869402       -2.2702007814       -6.6798205275
 Se         4.3723294721       -3.1971869108       -3.2130677403
 Se         6.4331938555       -4.1098532443        0.4136420186
 Se         4.8503033307        7.5509093293       -0.7463548497
 Se         4.8776288797        4.5477652435       -4.0091414448
 Se         7.0830986217        3.5950723552       -0.6434567968
 Se         4.7810064642        1.5273410534       -7.5566303287
 Se         6.9188050062        0.6130038217       -3.7081238627
 Se         9.1066871843       -0.0609359671       -0.0919647969
  C         6.9955771113       -6.9586634775       -2.8583426301
  H         7.7780160969       -7.1271873265       -3.6573399650
  O         5.8389952916       -6.4652991204       -3.1445809228
  O         7.2920676004       -7.2683568805       -1.6893132711
  C         3.3939431960       -6.2668607509       -6.9513074648
  H         4.3245440932       -6.8689211647       -7.0591687882
  O         3.0202466073       -5.7860511295       -5.7843136273
  O         2.6220129789       -6.1746538788       -7.9242101403
  C         6.3116555909       -2.9071154185       -7.4921130606
  H         7.0978863851       -3.7212906458       -7.4285512081
  O         6.0096715894       -2.3219711192       -6.3505932827
  O         5.9403243477       -2.4750431756       -8.6116316973
  C         8.9837561036       -3.3697375837       -3.4349055328
  H         9.9249943929       -3.8864043165       -3.1840078659
  O         8.5659407989       -3.4209184445       -4.6048832464
  O         8.2714489672       -2.6971151254       -2.5207012617
  C         9.7902109758       -4.6282247391        2.1768529346
  H        10.6284324694       -5.3337138149        2.3552924638
  O         9.7484501532       -4.1824896055        0.9942458601
  O         9.0219926648       -4.5705851174        3.1873629795
  C        -2.8252708508       -8.8894178348        5.3653894160
  H        -2.3915771747       -9.8892286280        5.4446685031
  O        -1.9808601030       -7.9304545651        5.0436955975
  O        -4.0908415257       -8.7280019527        5.4030844137
  C         3.0047406823       -8.6887063298        5.2919739424
  H         2.6853413808       -9.0312323512        6.2714246943
  O         1.9985977812       -8.3553887881        4.5599054594
  O         4.2197147413       -8.6069092298        4.9235206312
  C         2.8732291572       -5.7090624943        8.2322507888
  H         2.4095730423       -6.3582442170        8.9295273658
  O         2.2236878889       -4.8031284854        7.6183804854
  O         4.1525405945       -5.8988692439        8.1468427445
  C        -2.5324052264       -5.9090323801        8.5168983878
  H        -2.0058427467       -6.7599986745        9.0204193621
  O        -1.9189018681       -5.2527647032        7.5983339134
  O        -3.6521974131       -5.4981014961        8.8936623702
  C        -6.8661340661        2.3082426882        7.3884767521
  H        -7.2433530482        3.2983326111        7.3747512577
  O        -5.6189307919        2.1553364867        7.5292857639
  O        -7.6694328727        1.3672322100        7.2032576312
  C        -4.1128935570        6.2776012356        7.2258109093
  H        -5.2184092536        6.2949225170        7.4003980339
  O        -3.5215502414        5.2331222329        6.7794929280
  O        -3.5956064510        7.4679880815        7.3184340370
  C        -6.2584500423        7.1467273309        4.0778865765
  H        -7.2018864753        7.1620259062        4.6862261037
  O        -5.8042352338        6.0508881806        3.6277903665
  O        -5.6141473350        8.2227071687        3.8530055117
  C        -9.2670155991        2.9624473135        4.4549609073
  H        -9.7760873251        3.8307467380        4.7753730710
  O        -8.0580447847        3.0137717908        4.1153681461
  O       -10.0869615960        1.9755230626        4.3964141791
  C        -9.5997958208       -3.5202239981        4.2555074891
  H       -10.6284324694       -3.6062117458        4.7363993397
  O        -9.3836198173       -2.7271085544        3.2939504316
  O        -8.6749593009       -4.3055307223        4.7674147240
  C        -5.4063829718       -6.0836320759       -6.1576393485
  H        -6.0390997038       -6.5934387315       -6.8768176703
  O        -5.3157147411       -6.5042627408       -4.9638375967
  O        -4.7997118332       -5.0931497246       -6.6842330004
  C        -7.4812021438       -7.2683192216       -1.8337008205
  H        -7.8430239833       -7.7214409635       -2.7403108931
  O        -6.3847231004       -6.5596142310       -1.8855223803
  O        -8.0870004405       -7.4369608581       -0.7449951352
  C        -9.2637717352       -3.4248031045       -2.1287629167
  H        -9.5435102925       -4.0726156799       -2.9624854104
  O        -8.1685743898       -2.7562864935       -2.2769679175
  O        -9.8293124780       -3.4993302663       -1.0042472880
  C        -6.7198117275       -1.5155721631       -7.0057360974
  H        -7.7266400310       -1.9701098143       -7.1795729881
  O        -6.3208037730       -1.2812141421       -5.7891801227
  O        -6.0546670581       -1.2647410752       -8.0219575549
  C        -1.9610306020        5.6962737072       -7.4797868569
  H        -1.8068881661        6.7616764611       -7.4798700689
  O        -2.4613788677        5.1953402046       -6.4147373301
  O        -1.7592038190        5.0404242691       -8.5376948407
  C        -1.7153677193        9.0065729983       -3.7807068554
  H        -1.3518565997        9.2891789052       -4.8285272378
  O        -1.7735635219        7.7204009534       -3.5311974415
  O        -1.9589811591        9.8892286280       -2.9296575010
  C         2.5176986766        8.6527359013       -4.1276241396
  H         2.7356319561        9.0838176512       -5.0545617483
  O         2.0941304229        7.4607563111       -4.0382054964
  O         2.6632020791        9.4136986823       -3.1567247192
  C         1.7405814703        5.3615037054       -8.2026998584
  H         1.4592813282        6.4433815072       -8.3446733349
  O         2.2712544771        5.0744229803       -7.0359036782
  O         1.5374971892        4.4786315137       -9.0204193621
  C         9.4791869119        2.6134878200        3.9079418032
  H         9.6264681644        3.4611325178        4.5867541287
  O         8.5294682966        2.7206869475        3.0468687327
  O        10.1884170796        1.5361363159        4.0354546634
  C         6.6320899766        7.0427804887        3.3240585285
  H         7.5183451153        7.1103565644        4.0025867163
  O         6.4921259472        6.1579139584        2.4473334656
  O         5.8014508194        7.8970951585        3.5804466065
  C         4.7468288793        5.8510846562        6.9391041765
  H         5.6837062732        5.7110173508        7.4566454645
  O         4.3315486404        4.9881730889        6.0840680113
  O         4.1390624477        6.9214380767        7.1338855679
  C         7.5642974957        1.7429307679        7.1823006621
  H         8.1116275708        2.6102062210        7.6466333920
  O         6.7423080014        2.0330978891        6.2208765696
  O         7.8434776238        0.5800715711        7.5931108165
     227
 i =        1, time =        1.000, E =        12.8125021137
 Cd        -8.6192349790        0.4794290183        3.4775458280
 Cd        -5.8723938925       -0.2569618674        7.1140516695
 Cd        -8.4082945535       -2.1546398852        0.3848833179
 Cd        -6.8924075438       -3.2913585123        3.9611612498
 Cd        -3.6902514656       -3.7008853052        7.3819828978
 Cd        -6.4422354650       -6.2356281123        0.4643643934
 Cd        -4.3122360841       -6.8294004391        3.9058877134
 Cd        -6.1167004376        3.8608780561        2.9063816761
 Cd        -3.6071627879        2.8814497103        6.5899433367
 Cd        -6.7534028783        1.1873642148       -0.3192712382
 Cd        -4.0447481710        0.0755112369        3.0500104044
 Cd        -1.7741928586       -0.3131321897        6.8333534404
 Cd        -6.3662986141       -1.4636172595       -3.4401713206
 Cd        -4.3618839854       -3.1214716677       -0.1743927980
 Cd        -2.2425281425       -3.6222048028        3.6335369903
 Cd         0.1781336631       -3.9618512797        7.0369565880
 Cd        -4.2698257502       -5.9874795817       -2.9988860388
 Cd        -2.2494750206       -6.7962391740        0.6788699569
 Cd         0.0674925881       -7.3035505427        3.8544895073
 Cd        -4.0796753376        7.4118002938        2.4191129531
 Cd        -1.6113663715        6.4885441045        6.2504296881
 Cd        -4.3325038018        4.8130340015       -0.6768718002
 Cd        -1.8303956943        3.6698977468        3.1586483848
 Cd         0.4898333302        3.1634862205        6.7201455791
 Cd        -4.5988345519        2.0002221180       -4.0895763674
 Cd        -2.1631459160        1.0185338647       -0.4517002408
 Cd         0.1383536286       -0.0678298907        3.1343168501
 Cd         2.6424135956       -0.6634101857        6.8954848803
 Cd        -4.1541672685       -0.5350159566       -6.9611061100
 Cd        -2.2032982564       -1.8487767792       -3.4903830149
 Cd         0.0357373447       -2.8475530052       -0.0251366868
 Cd         2.4398885629       -3.8222555342        3.5302559064
 Cd         4.5938475612       -4.2153338310        6.5947506661
 Cd        -2.6321395335       -4.5696166653       -6.0784178125
 Cd        -0.3607772712       -6.1205223485       -3.0632460124
 Cd         1.9866906967       -6.8521948211       -0.0372896144
 Cd         4.3579974261       -7.5039369651        3.0970260859
 Cd        -2.4314690468        8.2870965502       -1.2006913621
 Cd         0.1211362045        6.7914372283        2.0739235679
 Cd         2.2583220925        6.3881746844        5.9815863052
 Cd        -2.2736245351        5.5409565297       -4.1123703216
 Cd         0.1544191485        4.6149281159       -0.9819589968
 Cd         2.6162783956        3.7539141682        2.4618479767
 Cd         4.3940745353        2.5016089106        5.6451722654
 Cd        -2.3858914302        3.0934169202       -7.5401751293
 Cd        -0.1312081439        1.7710077115       -4.3472665982
 Cd         2.1530140505        0.8603499913       -0.9631857134
 Cd         4.3039012421       -0.4401310404        2.5255099712
 Cd         6.4920096507       -0.6514687500        6.0110959937
 Cd         0.4035416509       -0.5929191845       -7.0624592204
 Cd         2.1510977194       -1.8414548866       -3.9632984725
 Cd         4.1301085160       -2.9778240867       -0.5482808556
 Cd         6.9197826386       -3.7966557916        2.8863084361
 Cd         1.0697269355       -4.7684902623       -6.7910817163
 Cd         3.6507708772       -5.7624175000       -3.6173922455
 Cd         5.7324229239       -6.5634846734       -0.3325451883
 Cd         2.4543353819        8.1227288913       -1.1568056143
 Cd         4.4056883558        7.2900639437        1.7946932809
 Cd         2.3803961835        5.2451428037       -4.8082155519
 Cd         4.8185175871        4.7187481180       -1.4277826392
 Cd         6.7583511279        3.8404293875        2.0310692387
 Cd         2.6209479878        2.7832314861       -7.7034603412
 Cd         4.8483158342        1.7851453451       -4.5236424613
 Cd         6.7274436601        1.0642809054       -0.9631131834
 Cd         8.8868223622        0.4155094995        2.4351456261
 Cd         4.3615742439       -0.9237079401       -7.7311570427
 Cd         6.7425585152       -1.9757333804       -4.2010672701
 Cd         8.5293421258       -2.6208175703       -0.2525693679
 Se        -9.0561672234        0.2442968466        0.9176387655
 Se        -6.3731217954       -0.6562269708        4.4187036746
 Se        -3.9339146077       -1.3485520097        8.2987626661
 Se        -6.5831825405       -3.7429221143        1.3875660610
 Se        -4.5790777809       -4.2757987284        4.8605963638
 Se        -4.6125897826       -7.7784161347        1.5323909723
 Se        -6.6437213596        3.9856291005        0.4560689960
 Se        -4.0723268535        2.6207513858        3.9151362658
 Se        -1.6325674172        2.0126846797        7.9272041745
 Se        -6.7141882948        0.9842561094       -3.1648770281
 Se        -4.4075808174       -0.2115019936        0.3946518063
 Se        -2.0526285744       -1.1148352095        4.2599250095
 Se         0.4058650674       -1.5660865815        8.0664001349
 Se        -4.4165188424       -3.1310538630       -2.8054993731
 Se        -2.2367380101       -4.0917164743        0.9473522092
 Se         0.1525953380       -4.8125064390        4.4863616489
 Se        -2.4164117804       -7.4225214674       -2.0536452766
 Se        -0.0658762606       -7.8811185688        1.3097746330
 Se        -4.5542679546        7.5952800189       -0.0140698704
 Se        -1.8483340783        6.3637801727        3.5415438172
 Se         0.4039909962        5.8258869894        7.5885763590
 Se        -4.4678302467        4.5545362339       -3.3490927017
 Se        -2.0808676464        3.7150383676        0.3431624969
 Se         0.4987664392        2.6963680674        3.7296058512
 Se         2.7719597895        1.9960915727        7.6276112230
 Se        -4.6150887033        2.0749891058       -6.9052345921
 Se        -2.2792899813        0.8533834229       -3.1263260834
 Se         0.0150755242       -0.1633862120        0.3856622981
 Se         2.3130954500       -1.3177896830        4.0002074107
 Se         4.8637544388       -1.8841643918        7.7369687911
 Se        -2.0693292991       -1.9666647778       -6.4607269037
 Se        -0.0439618355       -3.1606980506       -2.8087350583
 Se         2.2320157687       -4.2318389996        0.7811246985
 Se         4.8364769612       -4.9540728709        4.0968672884
 Se        -0.7552084766       -6.2870999249       -5.8414991491
 Se         1.9251148731       -7.4804642091       -2.6084178131
 Se         4.2590961661       -8.3814076810        0.7354617398
 Se         0.0351177335        7.3692487492       -0.4918964846
 Se         2.3818001660        6.5251930512        3.1442830109
 Se         0.0442780436        4.4290321949       -3.5947241306
 Se         2.5165610532        3.6273388652       -0.0587714052
 Se         4.7737488717        2.4653796440        3.1249934669
 Se         0.0453890780        1.9313900352       -6.9719217544
 Se         2.2765067691        0.7655384096       -3.6572167217
 Se         4.3773028905       -0.2853018823       -0.0190454859
 Se         6.9680201451       -1.1297393588        3.5574029734
 Se         2.2382523052       -2.2696323002       -6.6842983569
 Se         4.3745468820       -3.1976029236       -3.2161686115
 Se         6.4333990539       -4.1120628812        0.4116226956
 Se         4.8540415717        7.5525866988       -0.7467723537
 Se         4.8780191040        4.5493832376       -4.0137959645
 Se         7.0870658778        3.5947697403       -0.6427861552
 Se         4.7840639921        1.5276923701       -7.5556403294
 Se         6.9205535649        0.6110116023       -3.7073140548
 Se         9.1081574312       -0.0623118504       -0.0934172830
  C         6.9966615213       -6.9497480684       -2.8612738131
  H         7.7649322095       -7.1224747738       -3.6684216540
  O         5.8474816389       -6.4683332574       -3.1395204838
  O         7.2955006949       -7.2772468185       -1.6997094934
  C         3.3951067392       -6.2672558606       -6.9491312343
  H         4.3444066225       -6.8936096686       -7.0753272229
  O         3.0190229960       -5.7918762618       -5.7868886544
  O         2.6196365219       -6.1705947187       -7.9253680378
  C         6.3106261656       -2.9078815099       -7.4909522786
  H         7.1299137504       -3.7048862282       -7.4466889051
  O         6.0075700676       -2.3194762320       -6.3515677095
  O         5.9412510443       -2.4761334217       -8.6135000098
  C         8.9773744898       -3.3708993205       -3.4296126377
  H         9.9250180562       -3.8774829974       -3.1826003730
  O         8.5708358271       -3.4169310945       -4.6051387840
  O         8.2729397099       -2.6978170640       -2.5233539255
  C         9.7980048189       -4.6251735012        2.1809703924
  H        10.6408655401       -5.3318691344        2.3887999993
  O         9.7490102322       -4.1829537217        0.9946435485
  O         9.0342328301       -4.5701667081        3.1878509839
  C        -2.8217032865       -8.8883651749        5.3598602116
  H        -2.4154187803       -9.9024293192        5.4343946394
  O        -1.9862662146       -7.9311892803        5.0433788619
  O        -4.0902177854       -8.7290983159        5.4057736938
  C         2.9969025915       -8.6915455771        5.2874385504
  H         2.6967725338       -9.0398269484        6.2934215078
  O         2.0030836873       -8.3599145107        4.5608885191
  O         4.2224682947       -8.6073201673        4.9267281676
  C         2.8792655124       -5.7053320243        8.2323683211
  H         2.3955873073       -6.3773024893        8.9303283437
  O         2.2230449572       -4.8108793245        7.6178078888
  O         4.1490435512       -5.9063367945        8.1561720457
  C        -2.5346952982       -5.9173566298        8.5219181127
  H        -2.0052498086       -6.7390725628        9.0096019785
  O        -1.9200850000       -5.2610762212        7.5989028036
  O        -3.6521639541       -5.5111154398        8.8949880681
  C        -6.8630528486        2.3027178804        7.3891057781
  H        -7.2086193538        3.3071349018        7.3885257928
  O        -5.6244744246        2.1597372518        7.5355186789
  O        -7.6711932235        1.3718012760        7.2000148396
  C        -4.1170204258        6.2827588672        7.2281216035
  H        -5.2418933127        6.2896177269        7.3832000201
  O        -3.5295243483        5.2304055677        6.7748685321
  O        -3.5925610353        7.4680345796        7.3187939831
  C        -6.2567086358        7.1461813212        4.0781185332
  H        -7.2111390447        7.1649409639        4.6689854642
  O        -5.8094066691        6.0510383841        3.6298981334
  O        -5.6170402660        8.2229443619        3.8527930396
  C        -9.2741425729        2.9617131417        4.4605009383
  H        -9.7855372140        3.8838940690        4.7760086716
  O        -8.0603493176        3.0116790355        4.1204748900
  O       -10.0843985441        1.9826695059        4.3943220735
  C        -9.6032266199       -3.5281901941        4.2551354529
  H       -10.5971720209       -3.6001750875        4.7566807035
  O        -9.3838398608       -2.7226092685        3.2941430794
  O        -8.6856372027       -4.3056812586        4.7661785667
  C        -5.4081393237       -6.0791825064       -6.1561396340
  H        -6.0546960796       -6.5859836395       -6.8890942905
  O        -5.3133948358       -6.5051866428       -4.9697640687
  O        -4.8026178175       -5.0937320371       -6.6864213217
  C        -7.4874605229       -7.2704907203       -1.8348081170
  H        -7.8388434959       -7.7173330376       -2.7530342297
  O        -6.3903048628       -6.5557854925       -1.8865520694
  O        -8.0738703989       -7.4424800921       -0.7474434085
  C        -9.2562028062       -3.4270265813       -2.1219516742
  H        -9.5270787848       -4.0663584857       -2.9594189931
  O        -8.1708129366       -2.7562519821       -2.2723239073
  O        -9.8257091931       -3.4954428686       -1.0107403117
  C        -6.7206796441       -1.5101934402       -7.0045464762
  H        -7.7450574417       -1.9674181007       -7.1698505571
  O        -6.3204601184       -1.2782013365       -5.8020007027
  O        -6.0673182984       -1.2650713510       -8.0177282885
  C        -1.9628531330        5.6954776520       -7.4852659275
  H        -1.7770888886        6.7764005651       -7.4923242406
  O        -2.4615047168        5.1887403557       -6.4111376463
  O        -1.7548372756        5.0452231755       -8.5307614525
  C        -1.7168396747        9.0074497292       -3.7839197778
  H        -1.3493405476        9.2660238074       -4.8465614694
  O        -1.7686620118        7.7234015382       -3.5249901854
  O        -1.9632417883        9.8912133883       -2.9426360979
  C         2.5061935979        8.6538361730       -4.1272916370
  H         2.7131102182        9.0638249498       -5.0476060874
  O         2.0940217764        7.4563319302       -4.0296852599
  O         2.6629399476        9.4126650015       -3.1575744883
  C         1.7410958314        5.3672359230       -8.1968178393
  H         1.4358383610        6.4416008070       -8.3632925476
  O         2.2773989489        5.0783955781       -7.0471632649
  O         1.5301153906        4.4851545355       -9.0189261399
  C         9.4767944249        2.6096173443        3.9000237940
  H         9.6131090334        3.4671477718        4.5843902861
  O         8.5307311473        2.7177549402        3.0516350840
  O        10.1905121868        1.5418818606        4.0355565462
  C         6.6326275596        7.0382381289        3.3282314355
  H         7.5082674956        7.1289998248        4.0070788575
  O         6.4956035047        6.1626481081        2.4476559880
  O         5.7975698627        7.9038705303        3.5839921132
  C         4.7447861053        5.8524533714        6.9353333287
  H         5.7085862008        5.7040540943        7.4370666698
  O         4.3297373878        4.9889877023        6.0817320396
  O         4.1505217818        6.9237641626        7.1400713998
  C         7.5603221419        1.7452841896        7.1878088431
  H         8.1158840311        2.6116602203        7.6593692779
  O         6.7476675417        2.0302999757        6.2248913455
  O         7.8448356636        0.5833804285        7.5910151154
     227
 i =        2, time =        2.000, E =        12.1020910126
 Cd        -8.6166141321        0.4774946768        3.4782801622
 Cd        -5.8741617784       -0.2567278811        7.1122872412
 Cd        -8.4091833431       -2.1571482615        0.3822942620
 Cd        -6.8885148822       -3.2922033295        3.9624419857