     227
 i =        0, time =        0.000, E =        -9.9626165125
 Cd        -8.6216924880        0.4810107428        3.4775887729
 Cd        -5.8723589632       -0.2566559957        7.1151373767
 Cd        -8.4076147924       -2.1531404527        0.3867588804
 Cd        -6.8957642261       -3.2896665849        3.9600318291
 Cd        -3.6930098048       -3.6992689615        7.3819491709
 Cd        -6.4429261463       -6.2347087238        0.4622469067
 Cd        -4.3123952394       -6.8285875372        3.9039095072
 Cd        -6.1141073353        3.8626235599        2.9066844924
 Cd        -3.6048790416        2.8797284733        6.5917986711
 Cd        -6.7531255596        1.1841266196       -0.3182182747
 Cd        -4.0437606329        0.0729837467        3.0511954168
 Cd        -1.7753257667       -0.3121054857        6.8316599018
 Cd        -6.3661028473       -1.4630135273       -3.4383357626
 Cd        -4.3602814436       -3.1214810613       -0.1759283953
 Cd        -2.2424276819       -3.6242998489        3.6335413818
 Cd         0.1757294635       -3.9625201566        7.0364714760
 Cd        -4.2692200317       -5.9860442556       -3.0005266361
 Cd        -2.2482225396       -6.7972628816        0.6786391664
 Cd         0.0669003827       -7.3030327295        3.8545421700
 Cd        -4.0792754193        7.4105475565        2.4175118797
 Cd        -1.6116442377        6.4880648240        6.2478272306
 Cd        -4.3308002626        4.8127262164       -0.6762739309
 Cd        -1.8326132452        3.6694977750        3.1598212265
 Cd         0.4939817277        3.1637060931        6.7202662426
 Cd        -4.5980154021        1.9988297698       -4.0880170010
 Cd        -2.1651194586        1.0165564496       -0.4536921834
 Cd         0.1376109507       -0.0659106884        3.1336818174
 Cd         2.6419074521       -0.6636939286        6.8958319365
 Cd        -4.1515129292       -0.5348426091       -6.9620217917
 Cd        -2.2012490343       -1.8491984656       -3.4894107829
 Cd         0.0359311218       -2.8494155653       -0.0264680683
 Cd         2.4407298775       -3.8224684908        3.5289587884
 Cd         4.5907434619       -4.2169180472        6.5928471603
 Cd        -2.6321953796       -4.5685798778       -6.0773989300
 Cd        -0.3638438279       -6.1221236347       -3.0620735359
 Cd         1.9882729153       -6.8506852632       -0.0376753302
 Cd         4.3604701588       -7.5063202656        3.0981086138
 Cd        -2.4313710890        8.2839908015       -1.2010761441
 Cd         0.1210964618        6.7915494583        2.0748938605
 Cd         2.2602783261        6.3879934074        5.9824457591
 Cd        -2.2743307721        5.5403016700       -4.1096429978
 Cd         0.1552258413        4.6164378819       -0.9814446932
 Cd         2.6173372932        3.7540356816        2.4616712460
 Cd         4.3934694910        2.5024270436        5.6448470259
 Cd        -2.3839877703        3.0961459608       -7.5397423510
 Cd        -0.1308699873        1.7716472388       -4.3458913396
 Cd         2.1522040622        0.8595996928       -0.9600505658
 Cd         4.3027041934       -0.4425155449        2.5248589789
 Cd         6.4943132815       -0.6514444341        6.0110723312
 Cd         0.4032906214       -0.5920449882       -7.0625722312
 Cd         2.1504065746       -1.8410095193       -3.9631978812
 Cd         4.1282053355       -2.9764966895       -0.5499119195
 Cd         6.9189885741       -3.8001688729        2.8840486736
 Cd         1.0693858855       -4.7693596381       -6.7909688629
 Cd         3.6529341800       -5.7620820022       -3.6150795142
 Cd         5.7341856059       -6.5625995016       -0.3323817960
 Cd         2.4532379782        8.1225833618       -1.1556872380
 Cd         4.4025673150        7.2904811152        1.7928276254
 Cd         2.3800547108        5.2453457502       -4.8107637235
 Cd         4.8184663347        4.7191125514       -1.4277792117
 Cd         6.7589411702        3.8390778732        2.0295448973
 Cd         2.6210634084        2.7844913241       -7.7035228004
 Cd         4.8495943395        1.7843685348       -4.5225056138
 Cd         6.7261500983        1.0662237140       -0.9642295531
 Cd         8.8881450478        0.4141445330        2.4369093904
 Cd         4.3615782352       -0.9213178924       -7.7328888960
 Cd         6.7438649008       -1.9767569930       -4.2031112584
 Cd         8.5272445020       -2.6218905711       -0.2551455218
 Se        -9.0557725106        0.2424574140        0.9180313808
 Se        -6.3745872764       -0.6570220647        4.4225742627
 Se        -3.9358548519       -1.3506397678        8.2925868769
 Se        -6.5830028390       -3.7408669090        1.3890860046
 Se        -4.5802302415       -4.2716541219        4.8585926421
 Se        -4.6110671623       -7.7792240778        1.5343213278
 Se        -6.6407812351        3.9866809498        0.4586064126
 Se        -4.0705866514        2.6241591830        3.9150270775
 Se        -1.6315747320        2.0143859544        7.9219454430
 Se        -6.7106235468        0.9827493806       -3.1628202938
 Se        -4.4077684895       -0.2106461950        0.3970531668
 Se        -2.0534879979       -1.1190641497        4.2604482105
 Se         0.4069246601       -1.5676855049        8.0617057342
 Se        -4.4126107232       -3.1307459794       -2.8028288282
 Se        -2.2371864822       -4.0884616040        0.9473336128
 Se         0.1541797359       -4.8148952714        4.4843326207
 Se        -2.4147106009       -7.4199706225       -2.0529393442
 Se        -0.0662571417       -7.8800811154        1.3078284855
 Se        -4.5519687636        7.5920037884       -0.0122560791
 Se        -1.8482840651        6.3647212661        3.5390459072
 Se         0.4006735392        5.8241498358        7.5878867146
 Se        -4.4655945585        4.5529209660       -3.3484418515
 Se        -2.0798083538        3.7153034916        0.3451575142
 Se         0.4973892782        2.6967113851        3.7286137790
 Se         2.7724753484        1.9958260876        7.6298945277
 Se        -4.6126224962        2.0736182894       -6.9031574659
 Se        -2.2770211290        0.8531533747       -3.1284312065
 Se         0.0138865169       -0.1636477002        0.3858468104
 Se         2.3115473387       -1.3198431962        4.0017354986
 Se         4.8624545925       -1.8855864388        7.7371297607
 Se        -2.0700877949       -1.9675257511       -6.4603372509
 Se        -0.0447057629       -3.1582708631       -2.8090856920
 Se         2.2343306950       -4.2299664240        0.7817840723
 Se         4.8342987615       -4.9516929708        4.0974643468
 Se        -0.7556003326       -6.2829108386       -5.8406699955
 Se         1.9243057511       -7.4784768035       -2.6074198353
 Se         4.2543989663       -8.3809591814        0.7363809319
 Se         0.0386925703        7.3677075300       -0.4939635450
 Se         2.3791568525        6.5289221229        3.1400383851
 Se         0.0465974103        4.4270318221       -3.5936563407
 Se         2.5167269427        3.6273521599       -0.0581806204
 Se         4.7705604635        2.4670139639        3.1233546104
 Se         0.0435933033        1.9323944164       -6.9695738842
 Se         2.2733127965        0.7623703678       -3.6584263160
 Se         4.3816175435       -0.2841549253       -0.0177063702
 Se         6.9670500347       -1.1290204494        3.5565582379
 Se         2.2410869402       -2.2702007814       -6.6798205275
 Se         4.3723294721       -3.1971869108       -3.2130677403
 Se         6.4331938555       -4.1098532443        0.4136420186
 Se         4.8503033307        7.5509093293       -0.7463548497
 Se         4.8776288797        4.5477652435       -4.0091414448
 Se         7.0830986217        3.5950723552       -0.6434567968
 Se         4.7810064642        1.5273410534       -7.5566303287
 Se         6.9188050062        0.6130038217       -3.7081238627
 Se         9.1066871843       -0.0609359671       -0.0919647969
  C         6.9955771113       -6.9586634775       -2.8583426301
  H         7.7780160969       -7.1271873265       -3.6573399650
  O         5.8389952916       -6.4652991204       -3.1445809228
  O         7.2920676004       -7.2683568805       -1.6893132711
  C         3.3939431960       -6.2668607509       -6.9513074648
  H         4.3245440932       -6.8689211647       -7.0591687882
  O         3.0202466073       -5.7860511295       -5.7843136273
  O         2.6220129789       -6.1746538788       -7.9242101403
  C         6.3116555909       -2.9071154185       -7.4921130606
  H         7.0978863851       -3.7212906458       -7.4285512081
  O         6.0096715894       -2.3219711192       -6.3505932827
  O         5.9403243477       -2.4750431756       -8.6116316973
  C         8.9837561036       -3.3697375837       -3.4349055328
  H         9.9249943929       -3.8864043165       -3.1840078659
  O         8.5659407989       -3.4209184445       -4.6048832464
  O         8.2714489672       -2.6971151254       -2.5207012617
  C         9.7902109758       -4.6282247391        2.1768529346
  H        10.6284324694       -5.3337138149        2.3552924638
  O         9.7484501532       -4.1824896055        0.9942458601
  O         9.0219926648       -4.5705851174        3.1873629795
  C        -2.8252708508       -8.8894178348        5.3653894160
  H        -2.3915771747       -9.8892286280        5.4446685031
  O        -1.9808601030       -7.9304545651        5.0436955975
  O        -4.0908415257       -8.7280019527        5.4030844137
  C         3.0047406823       -8.6887063298        5.2919739424
  H         2.6853413808       -9.0312323512        6.2714246943
  O         1.9985977812       -8.3553887881        4.5599054594
  O         4.2197147413       -8.6069092298        4.9235206312
  C         2.8732291572       -5.7090624943        8.2322507888
  H         2.4095730423       -6.3582442170        8.9295273658
  O         2.2236878889       -4.8031284854        7.6183804854
  O         4.1525405945       -5.8988692439        8.1468427445
  C        -2.5324052264       -5.9090323801        8.5168983878
  H        -2.0058427467       -6.7599986745        9.0204193621
  O        -1.9189018681       -5.2527647032        7.5983339134
  O        -3.6521974131       -5.4981014961        8.8936623702
  C        -6.8661340661        2.3082426882        7.3884767521
  H        -7.2433530482        3.2983326111        7.3747512577
  O        -5.6189307919        2.1553364867        7.5292857639
  O        -7.6694328727        1.3672322100        7.2032576312
  C        -4.1128935570        6.2776012356        7.2258109093
  H        -5.2184092536        6.2949225170        7.4003980339
  O        -3.5215502414        5.2331222329        6.7794929280
  O        -3.5956064510        7.4679880815        7.3184340370
  C        -6.2584500423        7.1467273309        4.0778865765
  H        -7.2018864753        7.1620259062        4.6862261037
  O        -5.8042352338        6.0508881806        3.6277903665
  O        -5.6141473350        8.2227071687        3.8530055117
  C        -9.2670155991        2.9624473135        4.4549609073
  H        -9.7760873251        3.8307467380        4.7753730710
  O        -8.0580447847        3.0137717908        4.1153681461
  O       -10.0869615960        1.9755230626        4.3964141791
  C        -9.5997958208       -3.5202239981        4.2555074891
  H       -10.6284324694       -3.6062117458        4.7363993397
  O        -9.3836198173       -2.7271085544        3.2939504316
  O        -8.6749593009       -4.3055307223        4.7674147240
  C        -5.4063829718       -6.0836320759       -6.1576393485
  H        -6.0390997038       -6.5934387315       -6.8768176703
  O        -5.3157147411       -6.5042627408       -4.9638375967
  O        -4.7997118332       -5.0931497246       -6.6842330004
  C        -7.4812021438       -7.2683192216       -1.8337008205
  H        -7.8430239833       -7.7214409635       -2.7403108931
  O        -6.3847231004       -6.5596142310       -1.8855223803
  O        -8.0870004405       -7.4369608581       -0.7449951352
  C        -9.2637717352       -3.4248031045       -2.1287629167
  H        -9.5435102925       -4.0726156799       -2.9624854104
  O        -8.1685743898       -2.7562864935       -2.2769679175
  O        -9.8293124780       -3.4993302663       -1.0042472880
  C        -6.7198117275       -1.5155721631       -7.0057360974
  H        -7.7266400310       -1.9701098143       -7.1795729881
  O        -6.3208037730       -1.2812141421       -5.7891801227
  O        -6.0546670581       -1.2647410752       -8.0219575549
  C        -1.9610306020        5.6962737072       -7.4797868569
  H        -1.8068881661        6.7616764611       -7.4798700689
  O        -2.4613788677        5.1953402046       -6.4147373301
  O        -1.7592038190        5.0404242691       -8.5376948407
  C        -1.7153677193        9.0065729983       -3.7807068554
  H        -1.3518565997        9.2891789052       -4.8285272378
  O        -1.7735635219        7.7204009534       -3.5311974415
  O        -1.9589811591        9.8892286280       -2.9296575010
  C         2.5176986766        8.6527359013       -4.1276241396
  H         2.7356319561        9.0838176512       -5.0545617483
  O         2.0941304229        7.4607563111       -4.0382054964
  O         2.6632020791        9.4136986823       -3.1567247192
  C         1.7405814703        5.3615037054       -8.2026998584
  H         1.4592813282        6.4433815072       -8.3446733349
  O         2.2712544771        5.0744229803       -7.0359036782
  O         1.5374971892        4.4786315137       -9.0204193621
  C         9.4791869119        2.6134878200        3.9079418032
  H         9.6264681644        3.4611325178        4.5867541287
  O         8.5294682966        2.7206869475        3.0468687327
  O        10.1884170796        1.5361363159        4.0354546634
  C         6.6320899766        7.0427804887        3.3240585285
  H         7.5183451153        7.1103565644        4.0025867163
  O         6.4921259472        6.1579139584        2.4473334656
  O         5.8014508194        7.8970951585        3.5804466065
  C         4.7468288793        5.8510846562        6.9391041765
  H         5.6837062732        5.7110173508        7.4566454645
  O         4.3315486404        4.9881730889        6.0840680113
  O         4.1390624477        6.9214380767        7.1338855679
  C         7.5642974957        1.7429307679        7.1823006621
  H         8.1116275708        2.6102062210        7.6466333920
  O         6.7423080014        2.0330978891        6.2208765696
  O         7.8434776238        0.5800715711        7.5931108165
     227
 i =        1, time =        1.000, E =        -9.9716500005
 Cd        -8.6193443031        0.4796406223        3.4771607364
 Cd        -5.8715137622       -0.2572088772        7.1144049080
 Cd        -8.4082126670       -2.1541205834        0.3852445792
 Cd        -6.8927358121       -3.2918181361        3.9610961245
 Cd        -3.6901787630       -3.7003714142        7.3823815289
 Cd        -6.4419654768       -6.2357532802        0.4642808732
 Cd        -4.3123562189       -6.8296173826        3.9051999023
 Cd        -6.1163693309        3.8609272859        2.9055411923
 Cd        -3.6066025071        2.8812197649        6.5904082749
 Cd        -6.7534230602        1.1872293730       -0.3192195687
 Cd        -4.0444025063        0.0755172369        3.0501824889
 Cd        -1.7741894145       -0.3125611566        6.8335710824
 Cd        -6.3660828739       -1.4624090717       -3.4401686051
 Cd        -4.3613361109       -3.1217922193       -0.1745593070
 Cd        -2.2426108788       -3.6215559179        3.6336064842
 Cd         0.1787125025       -3.9615820078        7.0369307070
 Cd        -4.2693517260       -5.9882355452       -2.9988610554
 Cd        -2.2486894543       -6.7966249428        0.6791794781
 Cd         0.0677927413       -7.3029749984        3.8542226659
 Cd        -4.0802930518        7.4119385099        2.4182442013
 Cd        -1.6107606716        6.4879198796        6.2509676360
 Cd        -4.3325216191        4.8128012298       -0.6769482873
 Cd        -1.8303906286        3.6695855916        3.1589490924
 Cd         0.4898037105        3.1633440459        6.7205273397
 Cd        -4.5996364104        2.0001000843       -4.0889970211
 Cd        -2.1628815576        1.0181153312       -0.4517516006
 Cd         0.1384290810       -0.0681748850        3.1344094110
 Cd         2.6424459665       -0.6635642921        6.8958978730
 Cd        -4.1540637865       -0.5351532486       -6.9611289098
 Cd        -2.2031726917       -1.8491062524       -3.4900192745
 Cd         0.0358087154       -2.8474754851       -0.0250964408
 Cd         2.4397090868       -3.8215386305        3.5304691680
 Cd         4.5938423162       -4.2151893288        6.5946699336
 Cd        -2.6316778047       -4.5699808087       -6.0785427086
 Cd        -0.3609717640       -6.1210596896       -3.0631254115
 Cd         1.9864022218       -6.8523395432       -0.0374633325
 Cd         4.3578708423       -7.5050617103        3.0974029298
 Cd        -2.4320664246        8.2867210936       -1.2003391162
 Cd         0.1211451391        6.7911346251        2.0748036944
 Cd         2.2580827141        6.3879355342        5.9826551569
 Cd        -2.2740452020        5.5405350528       -4.1121138554
 Cd         0.1544606868        4.6148598595       -0.9823421395
 Cd         2.6165241221        3.7533463170        2.4610151403
 Cd         4.3939121140        2.5015214397        5.6446831758
 Cd        -2.3864855017        3.0937091413       -7.5398913275
 Cd        -0.1312644937        1.7709131454       -4.3474192243
 Cd         2.1531654800        0.8600156781       -0.9631999944
 Cd         4.3034563561       -0.4402634771        2.5248009371
 Cd         6.4920210688       -0.6517919445        6.0104745489
 Cd         0.4042728923       -0.5927766973       -7.0621270008
 Cd         2.1513094737       -1.8410872399       -3.9633291808
 Cd         4.1299655337       -2.9780230163       -0.5482295700
 Cd         6.9198173523       -3.7969822766        2.8855201341
 Cd         1.0695398512       -4.7692044059       -6.7906683647
 Cd         3.6506189845       -5.7625130990       -3.6177168696
 Cd         5.7329662193       -6.5640285730       -0.3327729458
 Cd         2.4551308518        8.1222912498       -1.1565994954
 Cd         4.4053323081        7.2897901504        1.7948251834
 Cd         2.3804049804        5.2452038714       -4.8087279401
 Cd         4.8189826819        4.7184486331       -1.4284128774
 Cd         6.7582250451        3.8401455658        2.0311413411
 Cd         2.6218133219        2.7828903876       -7.7033756834
 Cd         4.8493540058        1.7846589942       -4.5231229110
 Cd         6.7277150231        1.0650259247       -0.9631043981
 Cd         8.8867399787        0.4155725361        2.4347878112
 Cd         4.3617967953       -0.9225920697       -7.7309225630
 Cd         6.7427732059       -1.9756107019       -4.2012716771
 Cd         8.5291260984       -2.6208004449       -0.2527901577
 Se        -9.0547688341        0.2428634150        0.9183255753
 Se        -6.3727579715       -0.6564907952        4.4183024058
 Se        -3.9345447652       -1.3489477682        8.2965041114
 Se        -6.5831226066       -3.7425284174        1.3880884251
 Se        -4.5790825668       -4.2748250204        4.8597199420
 Se        -4.6122296335       -7.7765690100        1.5328453682
 Se        -6.6422544165        3.9855676951        0.4577290169
 Se        -4.0719631764        2.6208498070        3.9142827586
 Se        -1.6333354984        2.0117254934        7.9251056416
 Se        -6.7116438722        0.9828811777       -3.1654766232
 Se        -4.4070644583       -0.2111849024        0.3948947601
 Se        -2.0531459329       -1.1153583913        4.2593792717
 Se         0.4060038565       -1.5661526040        8.0650684665
 Se        -4.4160701024       -3.1299742463       -2.8046574058
 Se        -2.2374573863       -4.0915887752        0.9472034955
 Se         0.1530674851       -4.8127613307        4.4857929623
 Se        -2.4165693647       -7.4205963474       -2.0539571245
 Se        -0.0669768999       -7.8791155636        1.3095356472
 Se        -4.5521058063        7.5948396633       -0.0125758314
 Se        -1.8467333142        6.3632957085        3.5400501425
 Se         0.4036987991        5.8261722953        7.5858426963
 Se        -4.4660128760        4.5539573895       -3.3489525866
 Se        -2.0809889260        3.7152563151        0.3431786415
 Se         0.4982200068        2.6970162752        3.7286655583
 Se         2.7717960199        1.9958679720        7.6262030626
 Se        -4.6131584366        2.0747754531       -6.9049093458
 Se        -2.2788845453        0.8535266477       -3.1260963546
 Se         0.0145453517       -0.1632182397        0.3853926516
 Se         2.3129677867       -1.3189491362        3.9989919040
 Se         4.8631480653       -1.8843046661        7.7353962819
 Se        -2.0702258972       -1.9664132935       -6.4603785746
 Se        -0.0447375907       -3.1599189448       -2.8087927499
 Se         2.2323339844       -4.2314557650        0.7809352550
 Se         4.8362387709       -4.9530788787        4.0967203940
 Se        -0.7551473038       -6.2847933851       -5.8413960676
 Se         1.9250119438       -7.4790347746       -2.6076178271
 Se         4.2593717612       -8.3791595109        0.7364194486
 Se         0.0356544203        7.3686153529       -0.4913242452
 Se         2.3809013542        6.5252215390        3.1424421469
 Se         0.0437112985        4.4288270859       -3.5939894655
 Se         2.5163890103        3.6274424274       -0.0568011214
 Se         4.7726836517        2.4661998845        3.1253355845
 Se         0.0455224347        1.9299438526       -6.9704851851
 Se         2.2758186208        0.7648263167       -3.6570677296
 Se         4.3766441280       -0.2853680035       -0.0177814834
 Se         6.9677156062       -1.1294289838        3.5582591372
 Se         2.2369778341       -2.2681559986       -6.6837637341
 Se         4.3737245208       -3.1974894988       -3.2156544503
 Se         6.4331434401       -4.1116810638        0.4129952641
 Se         4.8515093048        7.5524214570       -0.7459082432
 Se         4.8774813348        4.5489833113       -4.0122095372
 Se         7.0855777620        3.5934400785       -0.6429039580
 Se         4.7816588959        1.5264035276       -7.5555498361
 Se         6.9185300861        0.6112321027       -3.7073755481
 Se         9.1068579385       -0.0626979977       -0.0923130704
  C         6.9966786908       -6.9498418778       -2.8612694663
  H         7.7649322095       -7.1224747738       -3.6684216540
  O         5.8439579461       -6.4672258827       -3.1401088182
  O         7.2884224731       -7.2740907590       -1.6935145566
  C         3.3950649732       -6.2673072128       -6.9491820036
  H         4.3444066225       -6.8936096686       -7.0753272229
  O         3.0188455167       -5.7908873571       -5.7819222016
  O         2.6176899870       -6.1688943874       -7.9239713859
  C         6.3106279810       -2.9078500355       -7.4910576498
  H         7.1299137504       -3.7048862282       -7.4466889051
  O         6.0085735070       -2.3181766857       -6.3473796325
  O         5.9393400071       -2.4742185557       -8.6124582195
  C         8.9774497790       -3.3708803488       -3.4296495289
  H         9.9250180562       -3.8774829974       -3.1826003730
  O         8.5682391834       -3.4148437070       -4.6046141600
  O         8.2717253818       -2.6966832027       -2.5199995611
  C         9.7980759977       -4.6252014329        2.1809986274
  H        10.6408655401       -5.3318691344        2.3887999993
  O         9.7471210231       -4.1804722358        0.9925705885
  O         9.0285118139       -4.5680985543        3.1870362607
  C        -2.8217316695       -8.8884396612        5.3598597222
  H        -2.4154187803       -9.9024293192        5.4343946394
  O        -1.9847201383       -7.9306537257        5.0423239930
  O        -4.0904676498       -8.7274236504        5.4044036588
  C         2.9969222449       -8.6916241423        5.2874263820
  H         2.6967725338       -9.0398269484        6.2934215078
  O         1.9992773041       -8.3578470295        4.5594074823
  O         4.2233854221       -8.6004823094        4.9153090197
  C         2.8793051499       -5.7053268714        8.2324291113
  H         2.3955873073       -6.3773024893        8.9303283437
  O         2.2189172857       -4.8088153110        7.6163404038
  O         4.1498495814       -5.9034400471        8.1535671555
  C        -2.5347136240       -5.9173476746        8.5220087014
  H        -2.0052498086       -6.7390725628        9.0096019785
  O        -1.9214307132       -5.2583148938        7.5983375592
  O        -3.6522441301       -5.5083755176        8.8927373518
  C        -6.8630683387        2.3027057072        7.3892091009
  H        -7.2086193538        3.3071349018        7.3885257928
  O        -5.6212659815        2.1591132429        7.5336846817
  O        -7.6695387940        1.3702533142        7.1999593777
  C        -4.1169959159        6.2828053656        7.2281933187
  H        -5.2418933127        6.2896177269        7.3832000201
  O        -3.5266469741        5.2290301686        6.7738295473
  O        -3.5910712017        7.4673270982        7.3180518441
  C        -6.2567439590        7.1462451544        4.0780919756
  H        -7.2111390447        7.1649409639        4.6689854642
  O        -5.8090569057        6.0478172544        3.6278541286
  O        -5.6127059980        8.2206954333        3.8486642267
  C        -9.2742230808        2.9617584776        4.4604763696
  H        -9.7855372140        3.8838940690        4.7760086716
  O        -8.0588124293        3.0119142510        4.1192675022
  O       -10.0810569380        1.9792199787        4.3921666995
  C        -9.6032817137       -3.5282213463        4.2551681973
  H       -10.5971720209       -3.6001750875        4.7566807035
  O        -9.3833123339       -2.7227968845        3.2942850705
  O        -8.6785006688       -4.3016249003        4.7629363295
  C        -5.4081382185       -6.0792360507       -6.1561968120
  H        -6.0546960796       -6.5859836395       -6.8890942905
  O        -5.3110096720       -6.5040830453       -4.9651376095
  O        -4.7983528319       -5.0927340565       -6.6852975278
  C        -7.4874951461       -7.2705767285       -1.8347935561
  H        -7.8388434959       -7.7173330376       -2.7530342297
  O        -6.3887353926       -6.5549856866       -1.8842728676
  O        -8.0716691450       -7.4408961893       -0.7458128141
  C        -9.2562815348       -3.4269968536       -2.1219769277
  H        -9.5270787848       -4.0663584857       -2.9594189931
  O        -8.1698279386       -2.7554010351       -2.2727200966
  O        -9.8242122186       -3.4939508201       -1.0091936986
  C        -6.7207113540       -1.5101422147       -7.0046031252
  H        -7.7450574417       -1.9674181007       -7.1698505571
  O        -6.3198346850       -1.2781338203       -5.7990037447
  O        -6.0632605662       -1.2634512488       -8.0154928681
  C        -1.9629114810        5.6954910324       -7.4853208728
  H        -1.7770888886        6.7764005651       -7.4923242406
  O        -2.4611763705        5.1867049426       -6.4086942043
  O        -1.7564286307        5.0403611466       -8.5283295599
  C        -1.7168971354        9.0075136548       -3.7839135535
  H        -1.3493405476        9.2660238074       -4.8465614694
  O        -1.7700843715        7.7194357504       -3.5246464958
  O        -1.9637607176        9.8895707245       -2.9408254499
  C         2.5062437465        8.6538916286       -4.1272905273
  H         2.7131102182        9.0638249498       -5.0476060874
  O         2.0944725275        7.4532166945       -4.0307416127
  O         2.6627502328        9.4111572908       -3.1552226290
  C         1.7411636155        5.3672433979       -8.1968709851
  H         1.4358383610        6.4416008070       -8.3632925476
  O         2.2781710306        5.0765942691       -7.0406289077
  O         1.5312619886        4.4833508839       -9.0175780816
  C         9.4768918179        2.6096286616        3.8999970964
  H         9.6131090334        3.4671477718        4.5843902861
  O         8.5279768367        2.7173607712        3.0491562982
  O        10.1885250793        1.5401304843        4.0330689513
  C         6.6326636576        7.0383119688        3.3282000639
  H         7.5082674956        7.1289998248        4.0070788575
  O         6.4944841496        6.1603944907        2.4465552635
  O         5.7954722775        7.9030058816        3.5812604473
  C         4.7447652470        5.8524861372        6.9354054820
  H         5.7085862008        5.7040540943        7.4370666698
  O         4.3285903204        4.9885566497        6.0815310457
  O         4.1456078275        6.9223929542        7.1371332167
  C         7.5603394315        1.7452806108        7.1878911872
  H         8.1158840311        2.6116602203        7.6593692779
  O         6.7458608823        2.0302496253        6.2244639820
  O         7.8435014845        0.5821414179        7.5895163474
     227
 i =        2, time =        2.000, E =        -9.9863256755
 Cd        -8.6170043911        0.4783108566        3.4767306092
 Cd        -5.8706766690       -0.2577106414        7.1136833038
 Cd        -8.4088542418       -2.1551189798        0.3837133052
 Cd        -6.8897189263       -3.2939713276        3.9621482576