     227
 i =        0, time =        0.000, E =        -7.4659030476
 Cd        -8.6216924880        0.4810107428        3.4775887729
 Cd        -5.8723589632       -0.2566559957        7.1151373767
 Cd        -8.4076147924       -2.1531404527        0.3867588804
 Cd        -6.8957642261       -3.2896665849        3.9600318291
 Cd        -3.6930098048       -3.6992689615        7.3819491709
 Cd        -6.4429261463       -6.2347087238        0.4622469067
 Cd        -4.3123952394       -6.8285875372        3.9039095072
 Cd        -6.1141073353        3.8626235599        2.9066844924
 Cd        -3.6048790416        2.8797284733        6.5917986711
 Cd        -6.7531255596        1.1841266196       -0.3182182747
 Cd        -4.0437606329        0.0729837467        3.0511954168
 Cd        -1.7753257667       -0.3121054857        6.8316599018
 Cd        -6.3661028473       -1.4630135273       -3.4383357626
 Cd        -4.3602814436       -3.1214810613       -0.1759283953
 Cd        -2.2424276819       -3.6242998489        3.6335413818
 Cd         0.1757294635       -3.9625201566        7.0364714760
 Cd        -4.2692200317       -5.9860442556       -3.0005266361
 Cd        -2.2482225396       -6.7972628816        0.6786391664
 Cd         0.0669003827       -7.3030327295        3.8545421700
 Cd        -4.0792754193        7.4105475565        2.4175118797
 Cd        -1.6116442377        6.4880648240        6.2478272306
 Cd        -4.3308002626        4.8127262164       -0.6762739309
 Cd        -1.8326132452        3.6694977750        3.1598212265
 Cd         0.4939817277        3.1637060931        6.7202662426
 Cd        -4.5980154021        1.9988297698       -4.0880170010
 Cd        -2.1651194586        1.0165564496       -0.4536921834
 Cd         0.1376109507       -0.0659106884        3.1336818174
 Cd         2.6419074521       -0.6636939286        6.8958319365
 Cd        -4.1515129292       -0.5348426091       -6.9620217917
 Cd        -2.2012490343       -1.8491984656       -3.4894107829
 Cd         0.0359311218       -2.8494155653       -0.0264680683
 Cd         2.4407298775       -3.8224684908        3.5289587884
 Cd         4.5907434619       -4.2169180472        6.5928471603
 Cd        -2.6321953796       -4.5685798778       -6.0773989300
 Cd        -0.3638438279       -6.1221236347       -3.0620735359
 Cd         1.9882729153       -6.8506852632       -0.0376753302
 Cd         4.3604701588       -7.5063202656        3.0981086138
 Cd        -2.4313710890        8.2839908015       -1.2010761441
 Cd         0.1210964618        6.7915494583        2.0748938605
 Cd         2.2602783261        6.3879934074        5.9824457591
 Cd        -2.2743307721        5.5403016700       -4.1096429978
 Cd         0.1552258413        4.6164378819       -0.9814446932
 Cd         2.6173372932        3.7540356816        2.4616712460
 Cd         4.3934694910        2.5024270436        5.6448470259
 Cd        -2.3839877703        3.0961459608       -7.5397423510
 Cd        -0.1308699873        1.7716472388       -4.3458913396
 Cd         2.1522040622        0.8595996928       -0.9600505658
 Cd         4.3027041934       -0.4425155449        2.5248589789
 Cd         6.4943132815       -0.6514444341        6.0110723312
 Cd         0.4032906214       -0.5920449882       -7.0625722312
 Cd         2.1504065746       -1.8410095193       -3.9631978812
 Cd         4.1282053355       -2.9764966895       -0.5499119195
 Cd         6.9189885741       -3.8001688729        2.8840486736
 Cd         1.0693858855       -4.7693596381       -6.7909688629
 Cd         3.6529341800       -5.7620820022       -3.6150795142
 Cd         5.7341856059       -6.5625995016       -0.3323817960
 Cd         2.4532379782        8.1225833618       -1.1556872380
 Cd         4.4025673150        7.2904811152        1.7928276254
 Cd         2.3800547108        5.2453457502       -4.8107637235
 Cd         4.8184663347        4.7191125514       -1.4277792117
 Cd         6.7589411702        3.8390778732        2.0295448973
 Cd         2.6210634084        2.7844913241       -7.7035228004
 Cd         4.8495943395        1.7843685348       -4.5225056138
 Cd         6.7261500983        1.0662237140       -0.9642295531
 Cd         8.8881450478        0.4141445330        2.4369093904
 Cd         4.3615782352       -0.9213178924       -7.7328888960
 Cd         6.7438649008       -1.9767569930       -4.2031112584
 Cd         8.5272445020       -2.6218905711       -0.2551455218
 Se        -9.0557725106        0.2424574140        0.9180313808
 Se        -6.3745872764       -0.6570220647        4.4225742627
 Se        -3.9358548519       -1.3506397678        8.2925868769
 Se        -6.5830028390       -3.7408669090        1.3890860046
 Se        -4.5802302415       -4.2716541219        4.8585926421
 Se        -4.6110671623       -7.7792240778        1.5343213278
 Se        -6.6407812351        3.9866809498        0.4586064126
 Se        -4.0705866514        2.6241591830        3.9150270775
 Se        -1.6315747320        2.0143859544        7.9219454430
 Se        -6.7106235468        0.9827493806       -3.1628202938
 Se        -4.4077684895       -0.2106461950        0.3970531668
 Se        -2.0534879979       -1.1190641497        4.2604482105
 Se         0.4069246601       -1.5676855049        8.0617057342
 Se        -4.4126107232       -3.1307459794       -2.8028288282
 Se        -2.2371864822       -4.0884616040        0.9473336128
 Se         0.1541797359       -4.8148952714        4.4843326207
 Se        -2.4147106009       -7.4199706225       -2.0529393442
 Se        -0.0662571417       -7.8800811154        1.3078284855
 Se        -4.5519687636        7.5920037884       -0.0122560791
 Se        -1.8482840651        6.3647212661        3.5390459072
 Se         0.4006735392        5.8241498358        7.5878867146
 Se        -4.4655945585        4.5529209660       -3.3484418515
 Se        -2.0798083538        3.7153034916        0.3451575142
 Se         0.4973892782        2.6967113851        3.7286137790
 Se         2.7724753484        1.9958260876        7.6298945277
 Se        -4.6126224962        2.0736182894       -6.9031574659
 Se        -2.2770211290        0.8531533747       -3.1284312065
 Se         0.0138865169       -0.1636477002        0.3858468104
 Se         2.3115473387       -1.3198431962        4.0017354986
 Se         4.8624545925       -1.8855864388        7.7371297607
 Se        -2.0700877949       -1.9675257511       -6.4603372509
 Se        -0.0447057629       -3.1582708631       -2.8090856920
 Se         2.2343306950       -4.2299664240        0.7817840723
 Se         4.8342987615       -4.9516929708        4.0974643468
 Se        -0.7556003326       -6.2829108386       -5.8406699955
 Se         1.9243057511       -7.4784768035       -2.6074198353
 Se         4.2543989663       -8.3809591814        0.7363809319
 Se         0.0386925703        7.3677075300       -0.4939635450
 Se         2.3791568525        6.5289221229        3.1400383851
 Se         0.0465974103        4.4270318221       -3.5936563407
 Se         2.5167269427        3.6273521599       -0.0581806204
 Se         4.7705604635        2.4670139639        3.1233546104
 Se         0.0435933033        1.9323944164       -6.9695738842
 Se         2.2733127965        0.7623703678       -3.6584263160
 Se         4.3816175435       -0.2841549253       -0.0177063702
 Se         6.9670500347       -1.1290204494        3.5565582379
 Se         2.2410869402       -2.2702007814       -6.6798205275
 Se         4.3723294721       -3.1971869108       -3.2130677403
 Se         6.4331938555       -4.1098532443        0.4136420186
 Se         4.8503033307        7.5509093293       -0.7463548497
 Se         4.8776288797        4.5477652435       -4.0091414448
 Se         7.0830986217        3.5950723552       -0.6434567968
 Se         4.7810064642        1.5273410534       -7.5566303287
 Se         6.9188050062        0.6130038217       -3.7081238627
 Se         9.1066871843       -0.0609359671       -0.0919647969
  C         6.9955771113       -6.9586634775       -2.8583426301
  H         7.7780160969       -7.1271873265       -3.6573399650
  O         5.8389952916       -6.4652991204       -3.1445809228
  O         7.2920676004       -7.2683568805       -1.6893132711
  C         3.3939431960       -6.2668607509       -6.9513074648
  H         4.3245440932       -6.8689211647       -7.0591687882
  O         3.0202466073       -5.7860511295       -5.7843136273
  O         2.6220129789       -6.1746538788       -7.9242101403
  C         6.3116555909       -2.9071154185       -7.4921130606
  H         7.0978863851       -3.7212906458       -7.4285512081
  O         6.0096715894       -2.3219711192       -6.3505932827
  O         5.9403243477       -2.4750431756       -8.6116316973
  C         8.9837561036       -3.3697375837       -3.4349055328
  H         9.9249943929       -3.8864043165       -3.1840078659
  O         8.5659407989       -3.4209184445       -4.6048832464
  O         8.2714489672       -2.6971151254       -2.5207012617
  C         9.7902109758       -4.6282247391        2.1768529346
  H        10.6284324694       -5.3337138149        2.3552924638
  O         9.7484501532       -4.1824896055        0.9942458601
  O         9.0219926648       -4.5705851174        3.1873629795
  C        -2.8252708508       -8.8894178348        5.3653894160
  H        -2.3915771747       -9.8892286280        5.4446685031
  O        -1.9808601030       -7.9304545651        5.0436955975
  O        -4.0908415257       -8.7280019527        5.4030844137
  C         3.0047406823       -8.6887063298        5.2919739424
  H         2.6853413808       -9.0312323512        6.2714246943
  O         1.9985977812       -8.3553887881        4.5599054594
  O         4.2197147413       -8.6069092298        4.9235206312
  C         2.8732291572       -5.7090624943        8.2322507888
  H         2.4095730423       -6.3582442170        8.9295273658
  O         2.2236878889       -4.8031284854        7.6183804854
  O         4.1525405945       -5.8988692439        8.1468427445
  C        -2.5324052264       -5.9090323801        8.5168983878
  H        -2.0058427467       -6.7599986745        9.0204193621
  O        -1.9189018681       -5.2527647032        7.5983339134
  O        -3.6521974131       -5.4981014961        8.8936623702
  C        -6.8661340661        2.3082426882        7.3884767521
  H        -7.2433530482        3.2983326111        7.3747512577
  O        -5.6189307919        2.1553364867        7.5292857639
  O        -7.6694328727        1.3672322100        7.2032576312
  C        -4.1128935570        6.2776012356        7.2258109093
  H        -5.2184092536        6.2949225170        7.4003980339
  O        -3.5215502414        5.2331222329        6.7794929280
  O        -3.5956064510        7.4679880815        7.3184340370
  C        -6.2584500423        7.1467273309        4.0778865765
  H        -7.2018864753        7.1620259062        4.6862261037
  O        -5.8042352338        6.0508881806        3.6277903665
  O        -5.6141473350        8.2227071687        3.8530055117
  C        -9.2670155991        2.9624473135        4.4549609073
  H        -9.7760873251        3.8307467380        4.7753730710
  O        -8.0580447847        3.0137717908        4.1153681461
  O       -10.0869615960        1.9755230626        4.3964141791
  C        -9.5997958208       -3.5202239981        4.2555074891
  H       -10.6284324694       -3.6062117458        4.7363993397
  O        -9.3836198173       -2.7271085544        3.2939504316
  O        -8.6749593009       -4.3055307223        4.7674147240
  C        -5.4063829718       -6.0836320759       -6.1576393485
  H        -6.0390997038       -6.5934387315       -6.8768176703
  O        -5.3157147411       -6.5042627408       -4.9638375967
  O        -4.7997118332       -5.0931497246       -6.6842330004
  C        -7.4812021438       -7.2683192216       -1.8337008205
  H        -7.8430239833       -7.7214409635       -2.7403108931
  O        -6.3847231004       -6.5596142310       -1.8855223803
  O        -8.0870004405       -7.4369608581       -0.7449951352
  C        -9.2637717352       -3.4248031045       -2.1287629167
  H        -9.5435102925       -4.0726156799       -2.9624854104
  O        -8.1685743898       -2.7562864935       -2.2769679175
  O        -9.8293124780       -3.4993302663       -1.0042472880
  C        -6.7198117275       -1.5155721631       -7.0057360974
  H        -7.7266400310       -1.9701098143       -7.1795729881
  O        -6.3208037730       -1.2812141421       -5.7891801227
  O        -6.0546670581       -1.2647410752       -8.0219575549
  C        -1.9610306020        5.6962737072       -7.4797868569
  H        -1.8068881661        6.7616764611       -7.4798700689
  O        -2.4613788677        5.1953402046       -6.4147373301
  O        -1.7592038190        5.0404242691       -8.5376948407
  C        -1.7153677193        9.0065729983       -3.7807068554
  H        -1.3518565997        9.2891789052       -4.8285272378
  O        -1.7735635219        7.7204009534       -3.5311974415
  O        -1.9589811591        9.8892286280       -2.9296575010
  C         2.5176986766        8.6527359013       -4.1276241396
  H         2.7356319561        9.0838176512       -5.0545617483
  O         2.0941304229        7.4607563111       -4.0382054964
  O         2.6632020791        9.4136986823       -3.1567247192
  C         1.7405814703        5.3615037054       -8.2026998584
  H         1.4592813282        6.4433815072       -8.3446733349
  O         2.2712544771        5.0744229803       -7.0359036782
  O         1.5374971892        4.4786315137       -9.0204193621
  C         9.4791869119        2.6134878200        3.9079418032
  H         9.6264681644        3.4611325178        4.5867541287
  O         8.5294682966        2.7206869475        3.0468687327
  O        10.1884170796        1.5361363159        4.0354546634
  C         6.6320899766        7.0427804887        3.3240585285
  H         7.5183451153        7.1103565644        4.0025867163
  O         6.4921259472        6.1579139584        2.4473334656
  O         5.8014508194        7.8970951585        3.5804466065
  C         4.7468288793        5.8510846562        6.9391041765
  H         5.6837062732        5.7110173508        7.4566454645
  O         4.3315486404        4.9881730889        6.0840680113
  O         4.1390624477        6.9214380767        7.1338855679
  C         7.5642974957        1.7429307679        7.1823006621
  H         8.1116275708        2.6102062210        7.6466333920
  O         6.7423080014        2.0330978891        6.2208765696
  O         7.8434776238        0.5800715711        7.5931108165
     227
 i =        1, time =        1.000, E =        -7.4748784215
 Cd        -8.6193424620        0.4796351555        3.4771634475
 Cd        -5.8715182602       -0.2572123343        7.1144009115
 Cd        -8.4082078319       -2.1541221818        0.3852438392
 Cd        -6.8927324035       -3.2918155894        3.9610973336
 Cd        -3.6901788407       -3.7003712787        7.3823727627
 Cd        -6.4419638441       -6.2357478113        0.4642854447
 Cd        -4.3123557176       -6.8296097110        3.9052019457
 Cd        -6.1163666143        3.8609249137        2.9055446114
 Cd        -3.6066019062        2.8812188371        6.5903988265
 Cd        -6.7534181619        1.1872269865       -0.3192178532
 Cd        -4.0443982101        0.0755166758        3.0501783642
 Cd        -1.7741912587       -0.3125643552        6.8335593348
 Cd        -6.3660782674       -1.4624177619       -3.4401658416
 Cd        -4.3613372864       -3.1217903531       -0.1745595406
 Cd        -2.2426086069       -3.6215597452        3.6336029346
 Cd         0.1787064496       -3.9615821884        7.0369260838
 Cd        -4.2693490746       -5.9882241399       -2.9988595026
 Cd        -2.2486949920       -6.7966157122        0.6791812807
 Cd         0.0677901866       -7.3029742220        3.8542228989
 Cd        -4.0802807990        7.4119380659        2.4182483300
 Cd        -1.6107591396        6.4879245062        6.2509578752
 Cd        -4.3325134216        4.8128008414       -0.6769439300
 Cd        -1.8303866946        3.6695855466        3.1589469055
 Cd         0.4898033005        3.1633483787        6.7205152168
 Cd        -4.5996228828        2.0000955620       -4.0889993169
 Cd        -2.1628781198        1.0181163992       -0.4517484584
 Cd         0.1384269334       -0.0681718333        3.1344041199
 Cd         2.6424471125       -0.6635635805        6.8958846382
 Cd        -4.1540553994       -0.5351519792       -6.9611272683
 Cd        -2.2031703858       -1.8491033477       -3.4900204893
 Cd         0.0358083490       -2.8474690228       -0.0250959000
 Cd         2.4397104452       -3.8215414020        3.5304666036
 Cd         4.5938444820       -4.2151869399        6.5946641821
 Cd        -2.6316768644       -4.5699742536       -6.0785382085
 Cd        -0.3609709233       -6.1210461333       -3.0631229612
 Cd         1.9864053559       -6.8523304298       -0.0374608304
 Cd         4.3578741824       -7.5050489138        3.0973974139
 Cd        -2.4320619794        8.2867222715       -1.2003341436
 Cd         0.1211451106        6.7911337214        2.0747959863
 Cd         2.2580764695        6.3879376772        5.9826403459
 Cd        -2.2740407737        5.5405353777       -4.1121110827
 Cd         0.1544612558        4.6148568403       -0.9823345778
 Cd         2.6165198840        3.7533513178        2.4610215849
 Cd         4.3939074698        2.5015170871        5.6446827718
 Cd        -2.3864788389        3.0936990082       -7.5398938858
 Cd        -0.1312638386        1.7709075723       -4.3474157555
 Cd         2.1531574049        0.8600162202       -0.9631969250
 Cd         4.3034543688       -0.4402652588        2.5248073104
 Cd         6.4920154198       -0.6517937155        6.0104747305
 Cd         0.4042679115       -0.5927767133       -7.0621282552
 Cd         2.1513020559       -1.8410865938       -3.9633256352
 Cd         4.1299594903       -2.9780199811       -0.5482276654
 Cd         6.9198142318       -3.7969793834        2.8855271340
 Cd         1.0695324746       -4.7691920326       -6.7906723980
 Cd         3.6506142166       -5.7625076512       -3.6177102475
 Cd         5.7329566132       -6.5640205607       -0.3327658597
 Cd         2.4551232983        8.1222924745       -1.1565905591
 Cd         4.4053263391        7.2897919485        1.7948207236
 Cd         2.3804034187        5.2451966478       -4.8087223420
 Cd         4.8189728763        4.7184480163       -1.4284035470
 Cd         6.7582205937        3.8401462201        2.0311394290
 Cd         2.6218066773        2.7828855124       -7.7033746902
 Cd         4.8493393468        1.7846602580       -4.5231265419
 Cd         6.7277052002        1.0650186581       -0.9630995069
 Cd         8.8867386832        0.4155682357        2.4347903079
 Cd         4.3617864603       -0.9225962995       -7.7309264934
 Cd         6.7427668348       -1.9756086335       -4.2012693355
 Cd         8.5291256802       -2.6207988676       -0.2527835268
 Se        -9.0547920139        0.2428804693        0.9183194727
 Se        -6.3727664639       -0.6564830578        4.4183085066
 Se        -3.9345374137       -1.3489381525        8.2965331394
 Se        -6.5831326675       -3.7425283221        1.3880912033
 Se        -4.5790889990       -4.2748293262        4.8597281473
 Se        -4.6122334580       -7.7765983313        1.5328374269
 Se        -6.6422774118        3.9855750600        0.4577155434
 Se        -4.0719766029        2.6208517986        3.9142936342
 Se        -1.6333293726        2.0117331415        7.9251413849
 Se        -6.7116725220        0.9828929080       -3.1654833226
 Se        -4.4070733789       -0.2111879625        0.3948889599
 Se        -2.0531455873       -1.1153558012        4.2593880496
 Se         0.4060047629       -1.5661472103        8.0650925256
 Se        -4.4160829402       -3.1299859860       -2.8046668100
 Se        -2.2374532166       -4.0915938010        0.9472049294
 Se         0.1530635178       -4.8127645268        4.4858040384
 Se        -2.4165666706       -7.4206277081       -2.0539526582
 Se        -0.0669682276       -7.8791452218        1.3095331363
 Se        -4.5521393064        7.5948455830       -0.0125898154
 Se        -1.8467545884        6.3632989154        3.5400670806
 Se         0.4037029736        5.8261693868        7.5858801037
 Se        -4.4660376867        4.5539651276       -3.3489583669
 Se        -2.0809941626        3.7152565602        0.3431816338
 Se         0.4982289227        2.6970104995        3.7286753755
 Se         2.7718008910        1.9958753867        7.6262320974
 Se        -4.6131883871        2.0747856766       -6.9049136020
 Se        -2.2788935496        0.8535318189       -3.1260973394
 Se         0.0145488178       -0.1632180006        0.3853945772
 Se         2.3129662624       -1.3189438097        3.9990058777
 Se         4.8631546663       -1.8843012303        7.7354255591
 Se        -2.0702186165       -1.9664171615       -6.4603849342
 Se        -0.0447304676       -3.1599307994       -2.8087941260
 Se         2.2323336352       -4.2314659195        0.7809388893
 Se         4.8362427920       -4.9530928159        4.0967212292
 Se        -0.7551435528       -6.2848270385       -5.8413973845
 Se         1.9250153306       -7.4790627777       -2.6076314362
 Se         4.2593681014       -8.3791904929        0.7364063004
 Se         0.0356439296        7.3686266517       -0.4913461739
 Se         2.3809168351        6.5252216415        3.1424622054
 Se         0.0437158198        4.4288402942       -3.5939993464
 Se         2.5163978298        3.6274399887       -0.0568164232
 Se         4.7727007928        2.4661949697        3.1253348168
 Se         0.0455243226        1.9299750984       -6.9705056014
 Se         2.2758321998        0.7648359335       -3.6570751111
 Se         4.3766562103       -0.2853655502       -0.0177951206
 Se         6.9677247348       -1.1294271012        3.5582507080
 Se         2.2370026894       -2.2681797974       -6.6837682813
 Se         4.3737463355       -3.1974981950       -3.2156703014
 Se         6.4331684103       -4.1116857863        0.4129798320
 Se         4.8515426765        7.5524262667       -0.7459264633
 Se         4.8774982673        4.5489927300       -4.0122272970
 Se         7.0856019248        3.5934542814       -0.6429121368
 Se         4.7816913639        1.5264173638       -7.5555513155
 Se         6.9185598124        0.6112305972       -3.7073798828
 Se         9.1068747424       -0.0626904937       -0.0923337209
  C         6.9966812197       -6.9498556950       -2.8612688260
  H         7.7649322095       -7.1224747738       -3.6684216540
  O         5.8439882342       -6.4672166809       -3.1401223687
  O         7.2884917464       -7.2741268891       -1.6935677155
  C         3.3950588214       -6.2673147765       -6.9491894814
  H         4.3444066225       -6.8936096686       -7.0753272229
  O         3.0188461537       -5.7909052673       -5.7819636565
  O         2.6177165575       -6.1689293741       -7.9239951900
  C         6.3106282484       -2.9078453996       -7.4910731700
  H         7.1299137504       -3.7048862282       -7.4466889051
  O         6.0085591261       -2.3182026229       -6.3473971658
  O         5.9393762767       -2.4742497054       -8.6124822634
  C         8.9774608684       -3.3708775545       -3.4296549627
  H         9.9250180562       -3.8774829974       -3.1826003730
  O         8.5682821850       -3.4148734350       -4.6046315945
  O         8.2717468676       -2.6966729190       -2.5200121291
  C         9.7980864817       -4.6252055469        2.1810027861
  H        10.6408655401       -5.3318691344        2.3887999993
  O         9.7470875563       -4.1805093679        0.9925738194
  O         9.0285762427       -4.5681256807        3.1870419871
  C        -2.8217358501       -8.8884506324        5.3598596501
  H        -2.4154187803       -9.9024293192        5.4343946394
  O        -1.9847245989       -7.9306707449        5.0423460729
  O        -4.0904715383       -8.7274649762        5.4044269065
  C         2.9969251396       -8.6916357143        5.2874245897
  H         2.6967725338       -9.0398269484        6.2934215078
  O         1.9992992908       -8.3578816861        4.5594233445
  O         4.2233851780       -8.6005413662        4.9154080190
  C         2.8793109881       -5.7053261125        8.2324380652
  H         2.3955873073       -6.3773024893        8.9303283437
  O         2.2189386424       -4.8088266232        7.6163712436
  O         4.1498478361       -5.9034782195        8.1536137440
  C        -2.5347163232       -5.9173463556        8.5220220443
  H        -2.0052498086       -6.7390725628        9.0096019785
  O        -1.9214154005       -5.2583623884        7.5983389084
  O        -3.6522461009       -5.5084160033        8.8927793954
  C        -6.8630706203        2.3027039142        7.3892243194
  H        -7.2086193538        3.3071349018        7.3885257928
  O        -5.6212961947        2.1591284632        7.5337159893
  O        -7.6695728016        1.3702710327        7.1999520508
  C        -4.1169923058        6.2828122144        7.2282038817
  H        -5.2418933127        6.2896177269        7.3832000201
  O        -3.5266790321        5.2290444941        6.7738449056
  O        -3.5911057273        7.4673487698        7.3180795895
  C        -6.2567491617        7.1462545564        4.0780880639
  H        -7.2111390447        7.1649409639        4.6689854642
  O        -5.8090746352        6.0478367684        3.6278715171
  O        -5.6127645261        8.2207335893        3.8487071450
  C        -9.2742349389        2.9617651551        4.4604727509
  H        -9.7855372140        3.8838940690        4.7760086716
  O        -8.0588361642        3.0119206931        4.1192827156
  O       -10.0811058010        1.9792623643        4.3921865756
  C        -9.6032898285       -3.5282259348        4.2551730202
  H       -10.5971720209       -3.6001750875        4.7566807035
  O        -9.3833163317       -2.7228024703        3.2942629485
  O        -8.6785711950       -4.3016691212        4.7629667431
  C        -5.4081380557       -6.0792439373       -6.1562052338
  H        -6.0546960796       -6.5859836395       -6.8890942905
  O        -5.3110496318       -6.5041132244       -4.9651858870
  O        -4.7984061747       -5.0927516783       -6.6853236268
  C        -7.4875002458       -7.2705893968       -1.8347914114
  H        -7.8388434959       -7.7173330376       -2.7530342297
  O        -6.3887571806       -6.5550110703       -1.8843042817
  O        -8.0717090444       -7.4409296755       -0.7458398353
  C        -9.2562931308       -3.4269924750       -2.1219806473
  H        -9.5270787848       -4.0663584857       -2.9594189931
  O        -8.1698429306       -2.7554173587       -2.2727326978
  O        -9.8242458660       -3.4939735251       -1.0092143056
  C        -6.7207160246       -1.5101346697       -7.0046114691
  H        -7.7450574417       -1.9674181007       -7.1698505571
  O        -6.3198719656       -1.2780990327       -5.7990066986
  O        -6.0633121441       -1.2634550167       -8.0155251769
  C        -1.9629200751        5.6954930032       -7.4853289658
  H        -1.7770888886        6.7764005651       -7.4923242406
  O        -2.4612004650        5.1867259097       -6.4087044639
  O        -1.7564105560        5.0404197342       -8.5283698712
  C        -1.7169055989        9.0075230705       -3.7839126367
  H        -1.3493405476        9.2660238074       -4.8465614694
  O        -1.7700430927        7.7194663327       -3.5246396442
  O        -1.9637529267        9.8896095154       -2.9408607543
  C         2.5062511330        8.6538997967       -4.1272903639
  H         2.7131102182        9.0638249498       -5.0476060874
  O         2.0944630929        7.4532413603       -4.0307384510
  O         2.6627696669        9.4111783681       -3.1552528717
  C         1.7411735994        5.3672444989       -8.1968788130
  H         1.4358383610        6.4416008070       -8.3632925476
  O         2.2781661928        5.0766253502       -7.0406913677
  O         1.5312274560        4.4833678551       -9.0175988986
  C         9.4769061630        2.6096303286        3.8999931641
  H         9.6131090334        3.4671477718        4.5843902861
  O         8.5279998750        2.7173737818        3.0491802703
  O        10.1885613508        1.5401559662        4.0331072787
  C         6.6326689745        7.0383228448        3.3281954431
  H         7.5082674956        7.1289998248        4.0070788575
  O         6.4945142381        6.1604269493        2.4465571519
  O         5.7954961254        7.9030237834        3.5812995725
  C         4.7447621747        5.8524909633        6.9354161095
  H         5.7085862008        5.7040540943        7.4370666698
  O         4.3286114538        4.9885570937        6.0815463649
  O         4.1456599407        6.9224122358        7.1371795491
  C         7.5603419781        1.7452800837        7.1879033157
  H         8.1158840311        2.6116602203        7.6593692779
  O         6.7458849996        2.0302681469        6.2244646590
  O         7.8435225281        0.5821570848        7.5895561569
     227
 i =        2, time =        2.000, E =        -7.4893136387
 Cd        -8.6169971071        0.4782889868        3.4767414972
 Cd        -5.8706945876       -0.2577244753        7.1136672540
 Cd        -8.4088348556       -2.1551252226        0.3837105695
 Cd        -6.8897063227       -3.2939607419        3.9621542511