     227
 i =        0, time =        0.000, E =        -4.3357352485
 Cd        -8.6216924880        0.4810107428        3.4775887729
 Cd        -5.8723589632       -0.2566559957        7.1151373767
 Cd        -8.4076147924       -2.1531404527        0.3867588804
 Cd        -6.8957642261       -3.2896665849        3.9600318291
 Cd        -3.6930098048       -3.6992689615        7.3819491709
 Cd        -6.4429261463       -6.2347087238        0.4622469067
 Cd        -4.3123952394       -6.8285875372        3.9039095072
 Cd        -6.1141073353        3.8626235599        2.9066844924
 Cd        -3.6048790416        2.8797284733        6.5917986711
 Cd        -6.7531255596        1.1841266196       -0.3182182747
 Cd        -4.0437606329        0.0729837467        3.0511954168
 Cd        -1.7753257667       -0.3121054857        6.8316599018
 Cd        -6.3661028473       -1.4630135273       -3.4383357626
 Cd        -4.3602814436       -3.1214810613       -0.1759283953
 Cd        -2.2424276819       -3.6242998489        3.6335413818
 Cd         0.1757294635       -3.9625201566        7.0364714760
 Cd        -4.2692200317       -5.9860442556       -3.0005266361
 Cd        -2.2482225396       -6.7972628816        0.6786391664
 Cd         0.0669003827       -7.3030327295        3.8545421700
 Cd        -4.0792754193        7.4105475565        2.4175118797
 Cd        -1.6116442377        6.4880648240        6.2478272306
 Cd        -4.3308002626        4.8127262164       -0.6762739309
 Cd        -1.8326132452        3.6694977750        3.1598212265
 Cd         0.4939817277        3.1637060931        6.7202662426
 Cd        -4.5980154021        1.9988297698       -4.0880170010
 Cd        -2.1651194586        1.0165564496       -0.4536921834
 Cd         0.1376109507       -0.0659106884        3.1336818174
 Cd         2.6419074521       -0.6636939286        6.8958319365
 Cd        -4.1515129292       -0.5348426091       -6.9620217917
 Cd        -2.2012490343       -1.8491984656       -3.4894107829
 Cd         0.0359311218       -2.8494155653       -0.0264680683
 Cd         2.4407298775       -3.8224684908        3.5289587884
 Cd         4.5907434619       -4.2169180472        6.5928471603
 Cd        -2.6321953796       -4.5685798778       -6.0773989300
 Cd        -0.3638438279       -6.1221236347       -3.0620735359
 Cd         1.9882729153       -6.8506852632       -0.0376753302
 Cd         4.3604701588       -7.5063202656        3.0981086138
 Cd        -2.4313710890        8.2839908015       -1.2010761441
 Cd         0.1210964618        6.7915494583        2.0748938605
 Cd         2.2602783261        6.3879934074        5.9824457591
 Cd        -2.2743307721        5.5403016700       -4.1096429978
 Cd         0.1552258413        4.6164378819       -0.9814446932
 Cd         2.6173372932        3.7540356816        2.4616712460
 Cd         4.3934694910        2.5024270436        5.6448470259
 Cd        -2.3839877703        3.0961459608       -7.5397423510
 Cd        -0.1308699873        1.7716472388       -4.3458913396
 Cd         2.1522040622        0.8595996928       -0.9600505658
 Cd         4.3027041934       -0.4425155449        2.5248589789
 Cd         6.4943132815       -0.6514444341        6.0110723312
 Cd         0.4032906214       -0.5920449882       -7.0625722312
 Cd         2.1504065746       -1.8410095193       -3.9631978812
 Cd         4.1282053355       -2.9764966895       -0.5499119195
 Cd         6.9189885741       -3.8001688729        2.8840486736
 Cd         1.0693858855       -4.7693596381       -6.7909688629
 Cd         3.6529341800       -5.7620820022       -3.6150795142
 Cd         5.7341856059       -6.5625995016       -0.3323817960
 Cd         2.4532379782        8.1225833618       -1.1556872380
 Cd         4.4025673150        7.2904811152        1.7928276254
 Cd         2.3800547108        5.2453457502       -4.8107637235
 Cd         4.8184663347        4.7191125514       -1.4277792117
 Cd         6.7589411702        3.8390778732        2.0295448973
 Cd         2.6210634084        2.7844913241       -7.7035228004
 Cd         4.8495943395        1.7843685348       -4.5225056138
 Cd         6.7261500983        1.0662237140       -0.9642295531
 Cd         8.8881450478        0.4141445330        2.4369093904
 Cd         4.3615782352       -0.9213178924       -7.7328888960
 Cd         6.7438649008       -1.9767569930       -4.2031112584
 Cd         8.5272445020       -2.6218905711       -0.2551455218
 Se        -9.0557725106        0.2424574140        0.9180313808
 Se        -6.3745872764       -0.6570220647        4.4225742627
 Se        -3.9358548519       -1.3506397678        8.2925868769
 Se        -6.5830028390       -3.7408669090        1.3890860046
 Se        -4.5802302415       -4.2716541219        4.8585926421
 Se        -4.6110671623       -7.7792240778        1.5343213278
 Se        -6.6407812351        3.9866809498        0.4586064126
 Se        -4.0705866514        2.6241591830        3.9150270775
 Se        -1.6315747320        2.0143859544        7.9219454430
 Se        -6.7106235468        0.9827493806       -3.1628202938
 Se        -4.4077684895       -0.2106461950        0.3970531668
 Se        -2.0534879979       -1.1190641497        4.2604482105
 Se         0.4069246601       -1.5676855049        8.0617057342
 Se        -4.4126107232       -3.1307459794       -2.8028288282
 Se        -2.2371864822       -4.0884616040        0.9473336128
 Se         0.1541797359       -4.8148952714        4.4843326207
 Se        -2.4147106009       -7.4199706225       -2.0529393442
 Se        -0.0662571417       -7.8800811154        1.3078284855
 Se        -4.5519687636        7.5920037884       -0.0122560791
 Se        -1.8482840651        6.3647212661        3.5390459072
 Se         0.4006735392        5.8241498358        7.5878867146
 Se        -4.4655945585        4.5529209660       -3.3484418515
 Se        -2.0798083538        3.7153034916        0.3451575142
 Se         0.4973892782        2.6967113851        3.7286137790
 Se         2.7724753484        1.9958260876        7.6298945277
 Se        -4.6126224962        2.0736182894       -6.9031574659
 Se        -2.2770211290        0.8531533747       -3.1284312065
 Se         0.0138865169       -0.1636477002        0.3858468104
 Se         2.3115473387       -1.3198431962        4.0017354986
 Se         4.8624545925       -1.8855864388        7.7371297607
 Se        -2.0700877949       -1.9675257511       -6.4603372509
 Se        -0.0447057629       -3.1582708631       -2.8090856920
 Se         2.2343306950       -4.2299664240        0.7817840723
 Se         4.8342987615       -4.9516929708        4.0974643468
 Se        -0.7556003326       -6.2829108386       -5.8406699955
 Se         1.9243057511       -7.4784768035       -2.6074198353
 Se         4.2543989663       -8.3809591814        0.7363809319
 Se         0.0386925703        7.3677075300       -0.4939635450
 Se         2.3791568525        6.5289221229        3.1400383851
 Se         0.0465974103        4.4270318221       -3.5936563407
 Se         2.5167269427        3.6273521599       -0.0581806204
 Se         4.7705604635        2.4670139639        3.1233546104
 Se         0.0435933033        1.9323944164       -6.9695738842
 Se         2.2733127965        0.7623703678       -3.6584263160
 Se         4.3816175435       -0.2841549253       -0.0177063702
 Se         6.9670500347       -1.1290204494        3.5565582379
 Se         2.2410869402       -2.2702007814       -6.6798205275
 Se         4.3723294721       -3.1971869108       -3.2130677403
 Se         6.4331938555       -4.1098532443        0.4136420186
 Se         4.8503033307        7.5509093293       -0.7463548497
 Se         4.8776288797        4.5477652435       -4.0091414448
 Se         7.0830986217        3.5950723552       -0.6434567968
 Se         4.7810064642        1.5273410534       -7.5566303287
 Se         6.9188050062        0.6130038217       -3.7081238627
 Se         9.1066871843       -0.0609359671       -0.0919647969
  C         6.9955771113       -6.9586634775       -2.8583426301
  H         7.7780160969       -7.1271873265       -3.6573399650
  O         5.8389952916       -6.4652991204       -3.1445809228
  O         7.2920676004       -7.2683568805       -1.6893132711
  C         3.3939431960       -6.2668607509       -6.9513074648
  H         4.3245440932       -6.8689211647       -7.0591687882
  O         3.0202466073       -5.7860511295       -5.7843136273
  O         2.6220129789       -6.1746538788       -7.9242101403
  C         6.3116555909       -2.9071154185       -7.4921130606
  H         7.0978863851       -3.7212906458       -7.4285512081
  O         6.0096715894       -2.3219711192       -6.3505932827
  O         5.9403243477       -2.4750431756       -8.6116316973
  C         8.9837561036       -3.3697375837       -3.4349055328
  H         9.9249943929       -3.8864043165       -3.1840078659
  O         8.5659407989       -3.4209184445       -4.6048832464
  O         8.2714489672       -2.6971151254       -2.5207012617
  C         9.7902109758       -4.6282247391        2.1768529346
  H        10.6284324694       -5.3337138149        2.3552924638
  O         9.7484501532       -4.1824896055        0.9942458601
  O         9.0219926648       -4.5705851174        3.1873629795
  C        -2.8252708508       -8.8894178348        5.3653894160
  H        -2.3915771747       -9.8892286280        5.4446685031
  O        -1.9808601030       -7.9304545651        5.0436955975
  O        -4.0908415257       -8.7280019527        5.4030844137
  C         3.0047406823       -8.6887063298        5.2919739424
  H         2.6853413808       -9.0312323512        6.2714246943
  O         1.9985977812       -8.3553887881        4.5599054594
  O         4.2197147413       -8.6069092298        4.9235206312
  C         2.8732291572       -5.7090624943        8.2322507888
  H         2.4095730423       -6.3582442170        8.9295273658
  O         2.2236878889       -4.8031284854        7.6183804854
  O         4.1525405945       -5.8988692439        8.1468427445
  C        -2.5324052264       -5.9090323801        8.5168983878
  H        -2.0058427467       -6.7599986745        9.0204193621
  O        -1.9189018681       -5.2527647032        7.5983339134
  O        -3.6521974131       -5.4981014961        8.8936623702
  C        -6.8661340661        2.3082426882        7.3884767521
  H        -7.2433530482        3.2983326111        7.3747512577
  O        -5.6189307919        2.1553364867        7.5292857639
  O        -7.6694328727        1.3672322100        7.2032576312
  C        -4.1128935570        6.2776012356        7.2258109093
  H        -5.2184092536        6.2949225170        7.4003980339
  O        -3.5215502414        5.2331222329        6.7794929280
  O        -3.5956064510        7.4679880815        7.3184340370
  C        -6.2584500423        7.1467273309        4.0778865765
  H        -7.2018864753        7.1620259062        4.6862261037
  O        -5.8042352338        6.0508881806        3.6277903665
  O        -5.6141473350        8.2227071687        3.8530055117
  C        -9.2670155991        2.9624473135        4.4549609073
  H        -9.7760873251        3.8307467380        4.7753730710
  O        -8.0580447847        3.0137717908        4.1153681461
  O       -10.0869615960        1.9755230626        4.3964141791
  C        -9.5997958208       -3.5202239981        4.2555074891
  H       -10.6284324694       -3.6062117458        4.7363993397
  O        -9.3836198173       -2.7271085544        3.2939504316
  O        -8.6749593009       -4.3055307223        4.7674147240
  C        -5.4063829718       -6.0836320759       -6.1576393485
  H        -6.0390997038       -6.5934387315       -6.8768176703
  O        -5.3157147411       -6.5042627408       -4.9638375967
  O        -4.7997118332       -5.0931497246       -6.6842330004
  C        -7.4812021438       -7.2683192216       -1.8337008205
  H        -7.8430239833       -7.7214409635       -2.7403108931
  O        -6.3847231004       -6.5596142310       -1.8855223803
  O        -8.0870004405       -7.4369608581       -0.7449951352
  C        -9.2637717352       -3.4248031045       -2.1287629167
  H        -9.5435102925       -4.0726156799       -2.9624854104
  O        -8.1685743898       -2.7562864935       -2.2769679175
  O        -9.8293124780       -3.4993302663       -1.0042472880
  C        -6.7198117275       -1.5155721631       -7.0057360974
  H        -7.7266400310       -1.9701098143       -7.1795729881
  O        -6.3208037730       -1.2812141421       -5.7891801227
  O        -6.0546670581       -1.2647410752       -8.0219575549
  C        -1.9610306020        5.6962737072       -7.4797868569
  H        -1.8068881661        6.7616764611       -7.4798700689
  O        -2.4613788677        5.1953402046       -6.4147373301
  O        -1.7592038190        5.0404242691       -8.5376948407
  C        -1.7153677193        9.0065729983       -3.7807068554
  H        -1.3518565997        9.2891789052       -4.8285272378
  O        -1.7735635219        7.7204009534       -3.5311974415
  O        -1.9589811591        9.8892286280       -2.9296575010
  C         2.5176986766        8.6527359013       -4.1276241396
  H         2.7356319561        9.0838176512       -5.0545617483
  O         2.0941304229        7.4607563111       -4.0382054964
  O         2.6632020791        9.4136986823       -3.1567247192
  C         1.7405814703        5.3615037054       -8.2026998584
  H         1.4592813282        6.4433815072       -8.3446733349
  O         2.2712544771        5.0744229803       -7.0359036782
  O         1.5374971892        4.4786315137       -9.0204193621
  C         9.4791869119        2.6134878200        3.9079418032
  H         9.6264681644        3.4611325178        4.5867541287
  O         8.5294682966        2.7206869475        3.0468687327
  O        10.1884170796        1.5361363159        4.0354546634
  C         6.6320899766        7.0427804887        3.3240585285
  H         7.5183451153        7.1103565644        4.0025867163
  O         6.4921259472        6.1579139584        2.4473334656
  O         5.8014508194        7.8970951585        3.5804466065
  C         4.7468288793        5.8510846562        6.9391041765
  H         5.6837062732        5.7110173508        7.4566454645
  O         4.3315486404        4.9881730889        6.0840680113
  O         4.1390624477        6.9214380767        7.1338855679
  C         7.5642974957        1.7429307679        7.1823006621
  H         8.1116275708        2.6102062210        7.6466333920
  O         6.7423080014        2.0330978891        6.2208765696
  O         7.8434776238        0.5800715711        7.5931108165
     227
 i =        1, time =        1.000, E =        -4.3502981891
 Cd        -8.6193268579        0.4796077229        3.4772184030
 Cd        -5.8716430687       -0.2571734425        7.1143490043
 Cd        -8.4082185527       -2.1541973956        0.3851914303
 Cd        -6.8926883390       -3.2917510362        3.9611060490
 Cd        -3.6901863902       -3.7004475336        7.3823158334
 Cd        -6.4420016020       -6.2357303833        0.4642937283
 Cd        -4.3123373062       -6.8295791373        3.9052997019
 Cd        -6.1164122252        3.8609190287        2.9056650391
 Cd        -3.6066821312        2.8812523531        6.5903316730
 Cd        -6.7534136995        1.1872447531       -0.3192244802
 Cd        -4.0444456519        0.0755161420        3.0501540825
 Cd        -1.7741924207       -0.3126454483        6.8335266628
 Cd        -6.3661069494       -1.4625899881       -3.4401672438
 Cd        -4.3614138460       -3.1217447205       -0.1745361246
 Cd        -2.2425964587       -3.6216506437        3.6335921893
 Cd         0.1786260832       -3.9616212129        7.0369281413
 Cd        -4.2694181820       -5.9881162319       -2.9988639375
 Cd        -2.2488068017       -6.7965588547        0.6791377337
 Cd         0.0677484266       -7.3030548117        3.8542609533
 Cd        -4.0801950153        7.4119168443        2.4183750021
 Cd        -1.6108486907        6.4880104536        6.2508808427
 Cd        -4.3325089235        4.8128330537       -0.6769319713
 Cd        -1.8303864639        3.6696298662        3.1589034845
 Cd         0.4898073560        3.1633691034        6.7204599476
 Cd        -4.5995065604        2.0001121009       -4.0890805705
 Cd        -2.1629140331        1.0181746180       -0.4517408127
 Cd         0.1384160468       -0.0681232143        3.1343895843
 Cd         2.6424427242       -0.6635421110        6.8958243864
 Cd        -4.1540724020       -0.5351333907       -6.9611233120
 Cd        -2.2031872759       -1.8490567171       -3.4900715582
 Cd         0.0357982479       -2.8474781406       -0.0251017378
 Cd         2.4397354368       -3.8216422012        3.5304355103
 Cd         4.5938426677       -4.2152083149        6.5946761587
 Cd        -2.6317429698       -4.5699214776       -6.0785203133
 Cd        -0.3609434990       -6.1209685997       -3.0631399582
 Cd         1.9864462754       -6.8523081459       -0.0374356977
 Cd         4.3578912952       -7.5048890678        3.0973465331
 Cd        -2.4319747280        8.2867745694       -1.2003865318
 Cd         0.1211442262        6.7911749973        2.0746701068
 Cd         2.2581136696        6.3879697840        5.9824887031
 Cd        -2.2739793539        5.5405954232       -4.1121478884
 Cd         0.1544555684        4.6148660290       -0.9822791952
 Cd         2.6164841474        3.7534314145        2.4611397886
 Cd         4.3939306894        2.5015299898        5.6447516761
 Cd        -2.3863923038        3.0936615408       -7.5399322958
 Cd        -0.1312551193        1.7709200493       -4.3473935742
 Cd         2.1531347176        0.8600624900       -0.9631937755
 Cd         4.3035158888       -0.4402467167        2.5249080377
 Cd         6.4920130148       -0.6517465211        6.0105634837
 Cd         0.4041639441       -0.5927965196       -7.0621730652
 Cd         2.1512711486       -1.8411379220       -3.9633210016
 Cd         4.1299786558       -2.9779914772       -0.5482341354
 Cd         6.9198103498       -3.7969334025        2.8856386386
 Cd         1.0695622314       -4.7690923235       -6.7907296398
 Cd         3.6506355970       -5.7624929882       -3.6176652867
 Cd         5.7328806615       -6.5639428251       -0.3327349455
 Cd         2.4550096852        8.1223538954       -1.1566206507
 Cd         4.4053786430        7.2898288946        1.7948041849
 Cd         2.3804010748        5.2451880104       -4.8086504707
 Cd         4.8189060694        4.7184892931       -1.4283133674
 Cd         6.7582376168        3.8401858019        2.0311298391
 Cd         2.6216806870        2.7829368476       -7.7033859670
 Cd         4.8491901826        1.7847289451       -4.5231996454
 Cd         6.7276655801        1.0649127358       -0.9631000578
 Cd         8.8867491492        0.4155623565        2.4348434526
 Cd         4.3617554343       -0.9227572380       -7.7309581709
 Cd         6.7427376417       -1.9756281546       -4.2012406903
 Cd         8.5291551345       -2.6208027911       -0.2527521779
 Se        -9.0549815725        0.2430885369        0.9182155409
 Se        -6.3728030871       -0.6564528896        4.4183529826
 Se        -3.9344436669       -1.3488830999        8.2968467834
 Se        -6.5831109267       -3.7425901165        1.3880022989
 Se        -4.5790878064       -4.2749634070        4.8598453222
 Se        -4.6122792194       -7.7768537115        1.5327720235
 Se        -6.6424803538        3.9855780653        0.4574723031
 Se        -4.0720196202        2.6208268696        3.9144057251
 Se        -1.6332123452        2.0118623954        7.9254358500
 Se        -6.7120310476        0.9831125701       -3.1653697070
 Se        -4.4071467384       -0.2112316984        0.3948552959
 Se        -2.0530729015       -1.1152810398        4.2594658337
 Se         0.4059794528       -1.5661248995        8.0652763827
 Se        -4.4161325174       -3.1301351080       -2.8047805232
 Se        -2.2373522120       -4.0916132157        0.9472268640
 Se         0.1529998037       -4.8127147243        4.4858636819
 Se        -2.4165378698       -7.4208960989       -2.0539051620
 Se        -0.0668145183       -7.8794231283        1.3095593347
 Se        -4.5524416658        7.5949022491       -0.0128060187
 Se        -1.8469730664        6.3633645919        3.5402699259
 Se         0.4037420815        5.8261226151        7.5862639297
 Se        -4.4663007579        4.5540389871       -3.3489633098
 Se        -2.0809786047        3.7152257250        0.3431789754
 Se         0.4983066416        2.6969190251        3.7288078204
 Se         2.7718148350        1.9958942523        7.6264329999
 Se        -4.6134576864        2.0748199090       -6.9049532438
 Se        -2.2789522105        0.8535125232       -3.1261296689
 Se         0.0146236252       -0.1632420084        0.3854328422
 Se         2.3129842381       -1.3187804185        3.9991771485
 Se         4.8632358399       -1.8842776571        7.7356423458
 Se        -2.0700895116       -1.9664515909       -6.4604291277
 Se        -0.0446210030       -3.1600409100       -2.8087857555
 Se         2.2322890004       -4.2315212035        0.7809654695
 Se         4.8362750237       -4.9532211508        4.0967360220
 Se        -0.7551632722       -6.2851505965       -5.8414041657
 Se         1.9250227053       -7.4792652737       -2.6077325528
 Se         4.2593241944       -8.3795021199        0.7362700579
 Se         0.0355811354        7.3687062973       -0.4913999456
 Se         2.3810259188        6.5252099371        3.1427139272
 Se         0.0437961815        4.4288444671       -3.5940931840
 Se         2.5164225428        3.6274253794       -0.0570960004
 Se         4.7728311713        2.4660753514        3.1252694549
 Se         0.0454955357        1.9301527238       -6.9706894522
 Se         2.2759303848        0.7649360921       -3.6570961549
 Se         4.3767503569       -0.2853569534       -0.0179746765
 Se         6.9677627374       -1.1294712108        3.5581255441
 Se         2.2371692759       -2.2683725981       -6.6838419097
 Se         4.3738419016       -3.1974927090       -3.2157232289
 Se         6.4331312441       -4.1117342523        0.4127811084
 Se         4.8519026593        7.5524403431       -0.7460462518
 Se         4.8775756824        4.5490428690       -4.0124460292
 Se         7.0858063794        3.5936381737       -0.6428996358
 Se         4.7820291956        1.5266003955       -7.5555585559
 Se         6.9188392564        0.6112095018       -3.7073698320
 Se         9.1070547408       -0.0626252874       -0.0924797984
  C         6.9966795493       -6.9498465683       -2.8612692489
  H         7.7649322095       -7.1224747738       -3.6684216540
  O         5.8445134001       -6.4674678200       -3.1400360244
  O         7.2894842793       -7.2745830795       -1.6944491983
  C         3.3950628848       -6.2673097804       -6.9491845421
  H         4.3444066225       -6.8936096686       -7.0753272229
  O         3.0189204601       -5.7910887998       -5.7826914875
  O         2.6179923528       -6.1691636329       -7.9241906691
  C         6.3106280718       -2.9078484618       -7.4910629184
  H         7.1299137504       -3.7048862282       -7.4466889051
  O         6.0085027150       -2.3183642814       -6.3480457522
  O         5.9396363544       -2.4745052705       -8.6126218496
  C         8.9774535435       -3.3708794002       -3.4296513735
  H         9.9250180562       -3.8774829974       -3.1826003730
  O         8.5686265689       -3.4151493971       -4.6046999499
  O         8.2719529505       -2.6968962146       -2.5205494962
  C         9.7980795567       -4.6252028295        2.1810000391
  H        10.6408655401       -5.3318691344        2.3887999993
  O         9.7476232660       -4.1808483740        0.9929022849
  O         9.0293945777       -4.5684254274        3.1871794702
  C        -2.8217330887       -8.8884433856        5.3598596977
  H        -2.4154187803       -9.9024293192        5.4343946394
  O        -1.9849547685       -7.9307695225        5.0424893048
  O        -4.0904360029       -8.7276856672        5.4046196623
  C         2.9969232275       -8.6916280706        5.2874257736
  H         2.6967725338       -9.0398269484        6.2934215078
  O         1.9998407324       -8.3581774096        4.5596436453
  O         4.2232483484       -8.6015372138        4.9170126258
  C         2.8793071318       -5.7053266138        8.2324321509
  H         2.3955873073       -6.3773024893        8.9303283437
  O         2.2195488232       -4.8091702444        7.6166038833
  O         4.1497359717       -5.9038762835        8.1539690624
  C        -2.5347145403       -5.9173472269        8.5220132309
  H        -2.0052498086       -6.7390725628        9.0096019785
  O        -1.9212418469       -5.2587350146        7.5984687594
  O        -3.6522326307       -5.5087864536        8.8930820013
  C        -6.8630691133        2.3027050985        7.3892142670
  H        -7.2086193538        3.3071349018        7.3885257928
  O        -5.6217577439        2.1592217199        7.5339761148
  O        -7.6698131236        1.3705152887        7.2000160711
  C        -4.1169946904        6.2828076906        7.2281969045
  H        -5.2418933127        6.2896177269        7.3832000201
  O        -3.5271040259        5.2292506868        6.7740271337
  O        -3.5913009858        7.4674396288        7.3181780199
  C        -6.2567457251        7.1462483460        4.0780906477
  H        -7.2111390447        7.1649409639        4.6689854642
  O        -5.8091463653        6.0483165165        3.6281692396
  O        -5.6133660251        8.2210442717        3.8492823344
  C        -9.2742271062        2.9617607444        4.4604751412
  H        -9.7855372140        3.8838940690        4.7760086716
  O        -8.0590630507        3.0118935927        4.1194495140
  O       -10.0815605795        1.9797369363        4.3924906000
  C        -9.6032844684       -3.5282229039        4.2551698345
  H       -10.5971720209       -3.6001750875        4.7566807035
  O        -9.3835233094       -2.7227919319        3.2943330677
  O        -8.6795743619       -4.3022319831        4.7634263048
  C        -5.4081381632       -6.0792387279       -6.1561996709
  H        -6.0546960796       -6.5859836395       -6.8890942905
  O        -5.3113759729       -6.5042703155       -4.9658207052
  O        -4.7989866418       -5.0928923759       -6.6854756192
  C        -7.4874968773       -7.2705810290       -1.8347928281
  H        -7.8388434959       -7.7173330376       -2.7530342297
  O        -6.3889812324       -6.5551209052       -1.8846197624
  O        -8.0720056344       -7.4411386041       -0.7460609820
  C        -9.2562854713       -3.4269953672       -2.1219781903
  H        -9.5270787848       -4.0663584857       -2.9594189931
  O        -8.1700154810       -2.7555238711       -2.2726758473
  O        -9.8244531331       -3.4941699371       -1.0094275035
  C        -6.7207129395       -1.5101396534       -7.0046059577
  H        -7.7450574417       -1.9674181007       -7.1698505571
  O        -6.3199484473       -1.2782274500       -5.7995435057
  O        -6.0638788960       -1.2637108703       -8.0158383208
  C        -1.9629143984        5.6954917014       -7.4853236201
  H        -1.7770888886        6.7764005651       -7.4923242406
  O        -2.4612161194        5.1870504292       -6.4091035729
  O        -1.7562065631        5.0411018112       -8.5287097781
  C        -1.7169000085        9.0075168511       -3.7839132423
  H        -1.3493405476        9.2660238074       -4.8465614694
  O        -1.7699426362        7.7200651466       -3.5247852305
  O        -1.9636931336        9.8898330088       -2.9411080561
  C         2.5062462540        8.6538944014       -4.1272904718
  H         2.7131102182        9.0638249498       -5.0476060874
  O         2.0944389199        7.4537257184       -4.0306123084
  O         2.6627651391        9.4114032588       -3.1556020058
  C         1.7411670047        5.3672437717       -8.1968736425
  H         1.4358383610        6.4416008070       -8.3632925476
  O         2.2780788363        5.0768904920       -7.0416066846
  O         1.5311227827        4.4836823772       -9.0178370083
  C         9.4768966876        2.6096292275        3.8999957616
  H         9.6131090334        3.4671477718        4.5843902861
  O         8.5284268160        2.7174282042        3.0495218284
  O        10.1888288140        1.5403936014        4.0334382598
  C         6.6326654625        7.0383156609        3.3281984953
  H         7.5082674956        7.1289998248        4.0070788575
  O         6.4946793226        6.1607299567        2.4467358357
  O         5.7958380759        7.9031621506        3.5816712056
  C         4.7447642040        5.8524877755        6.9354090897
  H         5.7085862008        5.7040540943        7.4370666698
  O         4.3288006397        4.9886645085        6.0815894641
  O         4.1463527513        6.9226032151        7.1375779571
  C         7.5603402960        1.7452804319        7.1878953044
  H         8.1158840311        2.6116602203        7.6593692779
  O         6.7461560156        2.0302638804        6.2245814833
  O         7.8437193210        0.5823410298        7.5897506980
     227
 i =        2, time =        2.000, E =        -4.3806150117
 Cd        -8.6169370744        0.4781798427        3.4769618160
 Cd        -5.8711918516       -0.2575683846        7.1134597172
 Cd        -8.4088764157       -2.1554222005        0.3835042513
 Cd        -6.8895326086       -3.2937045005        3.9621887134