     227
 i =        0, time =        0.000, E =        84.8644538310
 Cd        -8.6216924880        0.4810107428        3.4775887729
 Cd        -5.8723589632       -0.2566559957        7.1151373767
 Cd        -8.4076147924       -2.1531404527        0.3867588804
 Cd        -6.8957642261       -3.2896665849        3.9600318291
 Cd        -3.6930098048       -3.6992689615        7.3819491709
 Cd        -6.4429261463       -6.2347087238        0.4622469067
 Cd        -4.3123952394       -6.8285875372        3.9039095072
 Cd        -6.1141073353        3.8626235599        2.9066844924
 Cd        -3.6048790416        2.8797284733        6.5917986711
 Cd        -6.7531255596        1.1841266196       -0.3182182747
 Cd        -4.0437606329        0.0729837467        3.0511954168
 Cd        -1.7753257667       -0.3121054857        6.8316599018
 Cd        -6.3661028473       -1.4630135273       -3.4383357626
 Cd        -4.3602814436       -3.1214810613       -0.1759283953
 Cd        -2.2424276819       -3.6242998489        3.6335413818
 Cd         0.1757294635       -3.9625201566        7.0364714760
 Cd        -4.2692200317       -5.9860442556       -3.0005266361
 Cd        -2.2482225396       -6.7972628816        0.6786391664
 Cd         0.0669003827       -7.3030327295        3.8545421700
 Cd        -4.0792754193        7.4105475565        2.4175118797
 Cd        -1.6116442377        6.4880648240        6.2478272306
 Cd        -4.3308002626        4.8127262164       -0.6762739309
 Cd        -1.8326132452        3.6694977750        3.1598212265
 Cd         0.4939817277        3.1637060931        6.7202662426
 Cd        -4.5980154021        1.9988297698       -4.0880170010
 Cd        -2.1651194586        1.0165564496       -0.4536921834
 Cd         0.1376109507       -0.0659106884        3.1336818174
 Cd         2.6419074521       -0.6636939286        6.8958319365
 Cd        -4.1515129292       -0.5348426091       -6.9620217917
 Cd        -2.2012490343       -1.8491984656       -3.4894107829
 Cd         0.0359311218       -2.8494155653       -0.0264680683
 Cd         2.4407298775       -3.8224684908        3.5289587884
 Cd         4.5907434619       -4.2169180472        6.5928471603
 Cd        -2.6321953796       -4.5685798778       -6.0773989300
 Cd        -0.3638438279       -6.1221236347       -3.0620735359
 Cd         1.9882729153       -6.8506852632       -0.0376753302
 Cd         4.3604701588       -7.5063202656        3.0981086138
 Cd        -2.4313710890        8.2839908015       -1.2010761441
 Cd         0.1210964618        6.7915494583        2.0748938605
 Cd         2.2602783261        6.3879934074        5.9824457591
 Cd        -2.2743307721        5.5403016700       -4.1096429978
 Cd         0.1552258413        4.6164378819       -0.9814446932
 Cd         2.6173372932        3.7540356816        2.4616712460
 Cd         4.3934694910        2.5024270436        5.6448470259
 Cd        -2.3839877703        3.0961459608       -7.5397423510
 Cd        -0.1308699873        1.7716472388       -4.3458913396
 Cd         2.1522040622        0.8595996928       -0.9600505658
 Cd         4.3027041934       -0.4425155449        2.5248589789
 Cd         6.4943132815       -0.6514444341        6.0110723312
 Cd         0.4032906214       -0.5920449882       -7.0625722312
 Cd         2.1504065746       -1.8410095193       -3.9631978812
 Cd         4.1282053355       -2.9764966895       -0.5499119195
 Cd         6.9189885741       -3.8001688729        2.8840486736
 Cd         1.0693858855       -4.7693596381       -6.7909688629
 Cd         3.6529341800       -5.7620820022       -3.6150795142
 Cd         5.7341856059       -6.5625995016       -0.3323817960
 Cd         2.4532379782        8.1225833618       -1.1556872380
 Cd         4.4025673150        7.2904811152        1.7928276254
 Cd         2.3800547108        5.2453457502       -4.8107637235
 Cd         4.8184663347        4.7191125514       -1.4277792117
 Cd         6.7589411702        3.8390778732        2.0295448973
 Cd         2.6210634084        2.7844913241       -7.7035228004
 Cd         4.8495943395        1.7843685348       -4.5225056138
 Cd         6.7261500983        1.0662237140       -0.9642295531
 Cd         8.8881450478        0.4141445330        2.4369093904
 Cd         4.3615782352       -0.9213178924       -7.7328888960
 Cd         6.7438649008       -1.9767569930       -4.2031112584
 Cd         8.5272445020       -2.6218905711       -0.2551455218
 Se        -9.0557725106        0.2424574140        0.9180313808
 Se        -6.3745872764       -0.6570220647        4.4225742627
 Se        -3.9358548519       -1.3506397678        8.2925868769
 Se        -6.5830028390       -3.7408669090        1.3890860046
 Se        -4.5802302415       -4.2716541219        4.8585926421
 Se        -4.6110671623       -7.7792240778        1.5343213278
 Se        -6.6407812351        3.9866809498        0.4586064126
 Se        -4.0705866514        2.6241591830        3.9150270775
 Se        -1.6315747320        2.0143859544        7.9219454430
 Se        -6.7106235468        0.9827493806       -3.1628202938
 Se        -4.4077684895       -0.2106461950        0.3970531668
 Se        -2.0534879979       -1.1190641497        4.2604482105
 Se         0.4069246601       -1.5676855049        8.0617057342
 Se        -4.4126107232       -3.1307459794       -2.8028288282
 Se        -2.2371864822       -4.0884616040        0.9473336128
 Se         0.1541797359       -4.8148952714        4.4843326207
 Se        -2.4147106009       -7.4199706225       -2.0529393442
 Se        -0.0662571417       -7.8800811154        1.3078284855
 Se        -4.5519687636        7.5920037884       -0.0122560791
 Se        -1.8482840651        6.3647212661        3.5390459072
 Se         0.4006735392        5.8241498358        7.5878867146
 Se        -4.4655945585        4.5529209660       -3.3484418515
 Se        -2.0798083538        3.7153034916        0.3451575142
 Se         0.4973892782        2.6967113851        3.7286137790
 Se         2.7724753484        1.9958260876        7.6298945277
 Se        -4.6126224962        2.0736182894       -6.9031574659
 Se        -2.2770211290        0.8531533747       -3.1284312065
 Se         0.0138865169       -0.1636477002        0.3858468104
 Se         2.3115473387       -1.3198431962        4.0017354986
 Se         4.8624545925       -1.8855864388        7.7371297607
 Se        -2.0700877949       -1.9675257511       -6.4603372509
 Se        -0.0447057629       -3.1582708631       -2.8090856920
 Se         2.2343306950       -4.2299664240        0.7817840723
 Se         4.8342987615       -4.9516929708        4.0974643468
 Se        -0.7556003326       -6.2829108386       -5.8406699955
 Se         1.9243057511       -7.4784768035       -2.6074198353
 Se         4.2543989663       -8.3809591814        0.7363809319
 Se         0.0386925703        7.3677075300       -0.4939635450
 Se         2.3791568525        6.5289221229        3.1400383851
 Se         0.0465974103        4.4270318221       -3.5936563407
 Se         2.5167269427        3.6273521599       -0.0581806204
 Se         4.7705604635        2.4670139639        3.1233546104
 Se         0.0435933033        1.9323944164       -6.9695738842
 Se         2.2733127965        0.7623703678       -3.6584263160
 Se         4.3816175435       -0.2841549253       -0.0177063702
 Se         6.9670500347       -1.1290204494        3.5565582379
 Se         2.2410869402       -2.2702007814       -6.6798205275
 Se         4.3723294721       -3.1971869108       -3.2130677403
 Se         6.4331938555       -4.1098532443        0.4136420186
 Se         4.8503033307        7.5509093293       -0.7463548497
 Se         4.8776288797        4.5477652435       -4.0091414448
 Se         7.0830986217        3.5950723552       -0.6434567968
 Se         4.7810064642        1.5273410534       -7.5566303287
 Se         6.9188050062        0.6130038217       -3.7081238627
 Se         9.1066871843       -0.0609359671       -0.0919647969
  C         6.9955771113       -6.9586634775       -2.8583426301
  H         7.7780160969       -7.1271873265       -3.6573399650
  O         5.8389952916       -6.4652991204       -3.1445809228
  O         7.2920676004       -7.2683568805       -1.6893132711
  C         3.3939431960       -6.2668607509       -6.9513074648
  H         4.3245440932       -6.8689211647       -7.0591687882
  O         3.0202466073       -5.7860511295       -5.7843136273
  O         2.6220129789       -6.1746538788       -7.9242101403
  C         6.3116555909       -2.9071154185       -7.4921130606
  H         7.0978863851       -3.7212906458       -7.4285512081
  O         6.0096715894       -2.3219711192       -6.3505932827
  O         5.9403243477       -2.4750431756       -8.6116316973
  C         8.9837561036       -3.3697375837       -3.4349055328
  H         9.9249943929       -3.8864043165       -3.1840078659
  O         8.5659407989       -3.4209184445       -4.6048832464
  O         8.2714489672       -2.6971151254       -2.5207012617
  C         9.7902109758       -4.6282247391        2.1768529346
  H        10.6284324694       -5.3337138149        2.3552924638
  O         9.7484501532       -4.1824896055        0.9942458601
  O         9.0219926648       -4.5705851174        3.1873629795
  C        -2.8252708508       -8.8894178348        5.3653894160
  H        -2.3915771747       -9.8892286280        5.4446685031
  O        -1.9808601030       -7.9304545651        5.0436955975
  O        -4.0908415257       -8.7280019527        5.4030844137
  C         3.0047406823       -8.6887063298        5.2919739424
  H         2.6853413808       -9.0312323512        6.2714246943
  O         1.9985977812       -8.3553887881        4.5599054594
  O         4.2197147413       -8.6069092298        4.9235206312
  C         2.8732291572       -5.7090624943        8.2322507888
  H         2.4095730423       -6.3582442170        8.9295273658
  O         2.2236878889       -4.8031284854        7.6183804854
  O         4.1525405945       -5.8988692439        8.1468427445
  C        -2.5324052264       -5.9090323801        8.5168983878
  H        -2.0058427467       -6.7599986745        9.0204193621
  O        -1.9189018681       -5.2527647032        7.5983339134
  O        -3.6521974131       -5.4981014961        8.8936623702
  C        -6.8661340661        2.3082426882        7.3884767521
  H        -7.2433530482        3.2983326111        7.3747512577
  O        -5.6189307919        2.1553364867        7.5292857639
  O        -7.6694328727        1.3672322100        7.2032576312
  C        -4.1128935570        6.2776012356        7.2258109093
  H        -5.2184092536        6.2949225170        7.4003980339
  O        -3.5215502414        5.2331222329        6.7794929280
  O        -3.5956064510        7.4679880815        7.3184340370
  C        -6.2584500423        7.1467273309        4.0778865765
  H        -7.2018864753        7.1620259062        4.6862261037
  O        -5.8042352338        6.0508881806        3.6277903665
  O        -5.6141473350        8.2227071687        3.8530055117
  C        -9.2670155991        2.9624473135        4.4549609073
  H        -9.7760873251        3.8307467380        4.7753730710
  O        -8.0580447847        3.0137717908        4.1153681461
  O       -10.0869615960        1.9755230626        4.3964141791
  C        -9.5997958208       -3.5202239981        4.2555074891
  H       -10.6284324694       -3.6062117458        4.7363993397
  O        -9.3836198173       -2.7271085544        3.2939504316
  O        -8.6749593009       -4.3055307223        4.7674147240
  C        -5.4063829718       -6.0836320759       -6.1576393485
  H        -6.0390997038       -6.5934387315       -6.8768176703
  O        -5.3157147411       -6.5042627408       -4.9638375967
  O        -4.7997118332       -5.0931497246       -6.6842330004
  C        -7.4812021438       -7.2683192216       -1.8337008205
  H        -7.8430239833       -7.7214409635       -2.7403108931
  O        -6.3847231004       -6.5596142310       -1.8855223803
  O        -8.0870004405       -7.4369608581       -0.7449951352
  C        -9.2637717352       -3.4248031045       -2.1287629167
  H        -9.5435102925       -4.0726156799       -2.9624854104
  O        -8.1685743898       -2.7562864935       -2.2769679175
  O        -9.8293124780       -3.4993302663       -1.0042472880
  C        -6.7198117275       -1.5155721631       -7.0057360974
  H        -7.7266400310       -1.9701098143       -7.1795729881
  O        -6.3208037730       -1.2812141421       -5.7891801227
  O        -6.0546670581       -1.2647410752       -8.0219575549
  C        -1.9610306020        5.6962737072       -7.4797868569
  H        -1.8068881661        6.7616764611       -7.4798700689
  O        -2.4613788677        5.1953402046       -6.4147373301
  O        -1.7592038190        5.0404242691       -8.5376948407
  C        -1.7153677193        9.0065729983       -3.7807068554
  H        -1.3518565997        9.2891789052       -4.8285272378
  O        -1.7735635219        7.7204009534       -3.5311974415
  O        -1.9589811591        9.8892286280       -2.9296575010
  C         2.5176986766        8.6527359013       -4.1276241396
  H         2.7356319561        9.0838176512       -5.0545617483
  O         2.0941304229        7.4607563111       -4.0382054964
  O         2.6632020791        9.4136986823       -3.1567247192
  C         1.7405814703        5.3615037054       -8.2026998584
  H         1.4592813282        6.4433815072       -8.3446733349
  O         2.2712544771        5.0744229803       -7.0359036782
  O         1.5374971892        4.4786315137       -9.0204193621
  C         9.4791869119        2.6134878200        3.9079418032
  H         9.6264681644        3.4611325178        4.5867541287
  O         8.5294682966        2.7206869475        3.0468687327
  O        10.1884170796        1.5361363159        4.0354546634
  C         6.6320899766        7.0427804887        3.3240585285
  H         7.5183451153        7.1103565644        4.0025867163
  O         6.4921259472        6.1579139584        2.4473334656
  O         5.8014508194        7.8970951585        3.5804466065
  C         4.7468288793        5.8510846562        6.9391041765
  H         5.6837062732        5.7110173508        7.4566454645
  O         4.3315486404        4.9881730889        6.0840680113
  O         4.1390624477        6.9214380767        7.1338855679
  C         7.5642974957        1.7429307679        7.1823006621
  H         8.1116275708        2.6102062210        7.6466333920
  O         6.7423080014        2.0330978891        6.2208765696
  O         7.8434776238        0.5800715711        7.5931108165
     227
 i =        1, time =        1.000, E =        83.1794621493
 Cd        -8.6190655020        0.4790572692        3.4780835602
 Cd        -5.8736006353       -0.2567166340        7.1135425383
 Cd        -8.4083296362       -2.1553273586        0.3844112910
 Cd        -6.8919174877       -3.2907218993        3.9612667904
 Cd        -3.6903608775       -3.7015293710        7.3813335944
 Cd        -6.4425614172       -6.2353796350        0.4645619038
 Cd        -4.3120801939       -6.8289998078        3.9068067277
 Cd        -6.1170927484        3.8607718269        2.9075140049
 Cd        -3.6078731059        2.8817275103        6.5892020547
 Cd        -6.7533088250        1.1875082860       -0.3193149191
 Cd        -4.0451359692        0.0754931246        3.0497232888
 Cd        -1.7742224646       -0.3139189440        6.8328988896
 Cd        -6.3665154289       -1.4653083660       -3.4401264862
 Cd        -4.3626157818       -3.1210294272       -0.1741803318
 Cd        -2.2423880758       -3.6231082453        3.6333965705
 Cd         0.1772828959       -3.9621974666        7.0369263419
 Cd        -4.2703869191       -5.9863292703       -2.9988894528
 Cd        -2.2505737270       -6.7956083665        0.6784963809
 Cd         0.0670609604       -7.3042870855        3.8548366150
 Cd        -4.0786773631        7.4116231477        2.4202812722
 Cd        -1.6121058868        6.4894356298        6.2495867878
 Cd        -4.3323634581        4.8133326913       -0.6767109821
 Cd        -1.8303459511        3.6702999371        3.1582299236
 Cd         0.4898659596        3.1637342702        6.7194697149
 Cd        -4.5976018772        2.0003133519       -4.0903650297
 Cd        -2.1634420748        1.0190969526       -0.4515868757
 Cd         0.1382237430       -0.0673352061        3.1341222662
 Cd         2.6423885183       -0.6631980367        6.8947542206
 Cd        -4.1541583484       -0.5348142740       -6.9610547740
 Cd        -2.2034293060       -1.8483055079       -3.4908743435
 Cd         0.0356393623       -2.8475623105       -0.0251795709
 Cd         2.4401438781       -3.8232290788        3.5299448910
 Cd         4.5939012289       -4.2154786911        6.5947626791
 Cd        -2.6327179830       -4.5690501740       -6.0781873482
 Cd        -0.3605121570       -6.1196242818       -3.0633641590
 Cd         1.9871119839       -6.8518751903       -0.0370289034
 Cd         4.3582171794       -7.5022867770        3.0964401555
 Cd        -2.4306414004        8.2876046386       -1.2010563551
 Cd         0.1211222423        6.7918224179        2.0726723257
 Cd         2.2585172319        6.3885262077        5.9799756048
 Cd        -2.2730214043        5.5415044287       -4.1126561303
 Cd         0.1543733033        4.6149717962       -0.9813519110
 Cd         2.6158996247        3.7547276153        2.4630234166
 Cd         4.3942110399        2.5016515652        5.6457999892
 Cd        -2.3850322845        3.0928611936       -7.5405909236
 Cd        -0.1311289356        1.7710479877       -4.3470182126
 Cd         2.1526991036        0.8607961547       -0.9631253496
 Cd         4.3044530467       -0.4399864510        2.5265239897
 Cd         6.4919110290       -0.6510858995        6.0118981894
 Cd         0.4025210278       -0.5931055406       -7.0629196672
 Cd         2.1507133582       -1.8419238629       -3.9632050173
 Cd         4.1302048841       -2.9775214103       -0.5483216043
 Cd         6.9196837508       -3.7961873634        2.8874369929
 Cd         1.0698370959       -4.7673671780       -6.7916853894
 Cd         3.6508936585       -5.7622149313       -3.6168642705
 Cd         5.7315659537       -6.5626605506       -0.3321335452
 Cd         2.4531945690        8.1233164418       -1.1569283704
 Cd         4.4060459261        7.2904552125        1.7944422681
 Cd         2.3803662236        5.2449513334       -4.8074624355
 Cd         4.8177686824        4.7191314774       -1.4268275952
 Cd         6.7584491008        3.8408095300        2.0309430044
 Cd         2.6197438676        2.7835808370       -7.7035579186
 Cd         4.8467568351        1.7857946638       -4.5243729390
 Cd         6.7269461709        1.0632069364       -0.9630520593
 Cd         8.8869148000        0.4153452796        2.4356341191
 Cd         4.3611231930       -0.9252010790       -7.7315290909
 Cd         6.7421754887       -1.9758485800       -4.2007649659
 Cd         8.5296206695       -2.6208073280       -0.2521812109
 Se        -9.0583263116        0.2465717114        0.9164312383
 Se        -6.3733663473       -0.6559490873        4.4190762705
 Se        -3.9329571893       -1.3479473312        8.3021870215
 Se        -6.5827383837       -3.7436096156        1.3866390381
 Se        -4.5792173938       -4.2770657795        4.8617453227
 Se        -4.6130718601       -7.7812971903        1.5316784785
 Se        -6.6460083367        3.9857649297        0.4534859541
 Se        -4.0727922136        2.6203899725        3.9161952655
 Se        -1.6313075405        2.0139182831        7.9305529802
 Se        -6.7180124924        0.9867947484       -3.1636363021
 Se        -4.4083960354       -0.2119687232        0.3942439970
 Se        -2.0519562415       -1.1141256064        4.2607718792
 Se         0.4055636260       -1.5656492224        8.0685659596
 Se        -4.4169725561       -3.1325725355       -2.8066567689
 Se        -2.2357449969       -4.0919595534        0.9475648710
 Se         0.1519876210       -4.8119293341        4.4867855290
 Se        -2.4160677603       -7.4255502363       -2.0531573776
 Se        -0.0643915486       -7.8841721720        1.3098628208
 Se        -4.5575704220        7.5959737692       -0.0163359624
 Se        -1.8504480124        6.3645280050        3.5435176025
 Se         0.4043747858        5.8254667737        7.5927647409
 Se        -4.4707889216        4.5553287667       -3.3491153898
 Se        -2.0807875584        3.7147680018        0.3431906276
 Se         0.4996112667        2.6954448170        3.7309834243
 Se         2.7720775911        1.9962359789        7.6300611344
 Se        -4.6180470635        2.0755721008       -6.9057466675
 Se        -2.2799521205        0.8532758199       -3.1266473281
 Se         0.0158161782       -0.1635984631        0.3860403426
 Se         2.3132422455       -1.3162067086        4.0020065974
 Se         4.8646243594       -1.8838820579        7.7394913106
 Se        -2.0679645371       -1.9670167226       -6.4612911385
 Se        -0.0428456659       -3.1618951925       -2.8086890195
 Se         2.2316030207       -4.2324943015        0.7814289246
 Se         4.8369042680       -4.9553370094        4.0969689923
 Se        -0.7555317845       -6.2906699285       -5.8416131644
 Se         1.9251548455       -7.4829179121       -2.6094359679
 Se         4.2586355632       -8.3848574811        0.7340188682
 Se         0.0345630143        7.3701252853       -0.4922995571
 Se         2.3827346407        6.5251434724        3.1467815086
 Se         0.0451063972        4.4289221156       -3.5956081412
 Se         2.5169233172        3.6271753517       -0.0615532746
 Se         4.7749397219        2.4641048636        3.1241525677
 Se         0.0450187656        1.9330417567       -6.9737626960
 Se         2.2776070575        0.7666136413       -3.6575321527
 Se         4.3783475073       -0.2851770352       -0.0208888285
 Se         6.9684570631       -1.1301650043        3.5561336952
 Se         2.2399056369       -2.2715240645       -6.6851407113
 Se         4.3754661721       -3.1973935710       -3.2166304230
 Se         6.4325115024       -4.1125465620        0.4095823568
 Se         4.8579497488        7.5528328541       -0.7481445215
 Se         4.8791223319        4.5499842599       -4.0160662247
 Se         7.0893761369        3.5966886149       -0.6429070684
 Se         4.7876855396        1.5296284537       -7.5558148627
 Se         6.9235672677        0.6110270913       -3.7073401326
 Se         9.1102208613       -0.0614290476       -0.0949711013
  C         6.9966747100       -6.9498201279       -2.8612704741
  H         7.7649322095       -7.1224747738       -3.6684216540
  O         5.8541413964       -6.4721093643       -3.1391441030
  O         7.3063575024       -7.2824645399       -1.7093801422
  C         3.3950746567       -6.2672953067       -6.9491702326
  H         4.3444066225       -6.8936096686       -7.0753272229
  O         3.0208973102       -5.7948273563       -5.7953255846
  O         2.6232096558       -6.1737139085       -7.9280110363
  C         6.3106275601       -2.9078573329       -7.4910332192
  H         7.1299137504       -3.7048862282       -7.4466889051
  O         6.0082100737       -2.3216750263       -6.3593023379
  O         5.9446525348       -2.4793518033       -8.6154109195
  C         8.9774323230       -3.3708847475       -3.4296409756
  H         9.9250180562       -3.8774829974       -3.1826003730
  O         8.5750842653       -3.4202623814       -4.6061330689
  O         8.2762194886       -2.7010499901       -2.5298219375
  C         9.7980594948       -4.6251949569        2.1809920810
  H        10.6408655401       -5.3318691344        2.3887999993
  O         9.7573787964       -4.1871349097        0.9986157710
  O         9.0439164250       -4.5738432451        3.1897139795
  C        -2.8217250889       -8.8884223914        5.3598598356
  H        -2.4154187803       -9.9024293192        5.4343946394
  O        -1.9890223482       -7.9331325533        5.0456394632
  O        -4.0898460653       -8.7321632618        5.4084728332
  C         2.9969176882       -8.6916059268        5.2874292033
  H         2.6967725338       -9.0398269484        6.2934215078
  O         2.0090748097       -8.3638539768        4.5639351397
  O         4.2210498006       -8.6182893111        4.9436706843
  C         2.8792959598       -5.7053280661        8.2324150170
  H         2.3955873073       -6.3773024893        8.9303283437
  O         2.2297478951       -4.8156044734        7.6212852947
  O         4.1478141326       -5.9111957135        8.1606027774
  C        -2.5347093751       -5.9173497509        8.5219876982
  H        -2.0052498086       -6.7390725628        9.0096019785
  O        -1.9183838512       -5.2660242508        7.6012216094
  O        -3.6520215505       -5.5156801413        8.8988021332
  C        -6.8630647473        2.3027085296        7.3891851453
  H        -7.2086193538        3.3071349018        7.3885257928
  O        -5.6302144136        2.1614809301        7.5389899113
  O        -7.6746150472        1.3752237822        7.2013985251
  C        -4.1170015986        6.2827945849        7.2281766914
  H        -5.2418933127        6.2896177269        7.3832000201
  O        -3.5350507681        5.2332297418        6.7776350660
  O        -3.5953152949        7.4694055359        7.3203454667
  C        -6.2567357692        7.1462303545        4.0780981330
  H        -7.2111390447        7.1649409639        4.6689854642
  O        -5.8111128781        6.0567579098        3.6338591864
  O        -5.6239779955        8.2266418727        3.8593356011
  C        -9.2742044149        2.9617479663        4.4604820659
  H        -9.7855372140        3.8838940690        4.7760086716
  O        -8.0636103698        3.0119301304        4.1228725512
  O       -10.0897301509        1.9881466797        4.3979167967
  C        -9.6032689401       -3.5282141236        4.2551606054
  H       -10.5971720209       -3.6001750875        4.7566807035
  O        -9.3881763266       -2.7229462775        3.2957551174
  O        -8.6968142850       -4.3118849209        4.7713395095
  C        -5.4081384747       -6.0792236363       -6.1561835552
  H        -6.0546960796       -6.5859836395       -6.8890942905
  O        -5.3174394073       -6.5073371742       -4.9769841959
  O        -4.8094714823       -5.0955553186       -6.6884607176
  C        -7.4874871187       -7.2705567874       -1.8347969321
  H        -7.8388434959       -7.7173330376       -2.7530342297
  O        -6.3935893578       -6.5574695727       -1.8904635726
  O        -8.0776677814       -7.4451292658       -0.7502287340
  C        -9.2562632814       -3.4270037460       -2.1219710726
  H        -9.5270787848       -4.0663584857       -2.9594189931
  O        -8.1737289497       -2.7578626597       -2.2721363609
  O        -9.8286215537       -3.4979283766       -1.0135069102
  C        -6.7207040020       -1.5101540914       -7.0045899910
  H        -7.7450574417       -1.9674181007       -7.1698505571
  O        -6.3221581313       -1.2806741066       -5.8091688486
  O        -6.0740574267       -1.2682738524       -8.0215554782
  C        -1.9628979529        5.6954879301       -7.4853081336
  H        -1.7770888886        6.7764005651       -7.4923242406
  O        -2.4616395618        5.1933791445       -6.4163790358
  O        -1.7527237185        5.0532029573       -8.5348988012
  C        -1.7168838130        9.0074988335       -3.7839149966
  H        -1.3493405476        9.2660238074       -4.8465614694
  O        -1.7680812681        7.7308267421       -3.5280389577
  O        -1.9626181556        9.8943241104       -2.9459416490
  C         2.5062321195        8.6538787711       -4.1272907846
  H         2.7131102182        9.0638249498       -5.0476060874
  O         2.0940070422        7.4627119649       -4.0289150715
  O         2.6627750501        9.4157904930       -3.1622370007
  C         1.7411478996        5.3672416649       -8.1968586632
  H         1.4358383610        6.4416008070       -8.3632925476
  O         2.2766166415        5.0823031491       -7.0573248222
  O         1.5290937174        4.4897024358       -9.0225271355
  C         9.4768692371        2.6096260377        3.9000032863
  H         9.6131090334        3.4671477718        4.5843902861
  O         8.5362817507        2.7189006789        3.0558210701
  O        10.1938987511        1.5447890100        4.0395378955
  C         6.6326552882        7.0382948489        3.3282073374
  H         7.5082674956        7.1289998248        4.0070788575
  O         6.4983244789        6.1663380828        2.4502069074
  O         5.8022645969        7.9058859499        3.5885231203
  C         4.7447700830        5.8524785404        6.9353887531
  H         5.7085862008        5.7040540943        7.4370666698
  O         4.3328793600        4.9909884891        6.0827816167
  O         4.1585682743        6.9260693115        7.1446737590
  C         7.5603354229        1.7452814406        7.1878720955
  H         8.1158840311        2.6116602203        7.6593692779
  O         6.7516462666        2.0307642975        6.2270407144
  O         7.8476454889        0.5858998069        7.5936705499
     227
 i =        2, time =        2.000, E =        78.9096336413
 Cd        -8.6161284303        0.4761630428        3.4804691152
 Cd        -5.8788611154       -0.2557771496        7.1103366959
 Cd        -8.4093737452       -2.1597571236        0.3804486819
 Cd        -6.8871131213       -3.2899782024        3.9630769377