     227
 i =        0, time =        0.000, E =        -8.6114159615
 Cd        -8.6216924880        0.4810107428        3.4775887729
 Cd        -5.8723589632       -0.2566559957        7.1151373767
 Cd        -8.4076147924       -2.1531404527        0.3867588804
 Cd        -6.8957642261       -3.2896665849        3.9600318291
 Cd        -3.6930098048       -3.6992689615        7.3819491709
 Cd        -6.4429261463       -6.2347087238        0.4622469067
 Cd        -4.3123952394       -6.8285875372        3.9039095072
 Cd        -6.1141073353        3.8626235599        2.9066844924
 Cd        -3.6048790416        2.8797284733        6.5917986711
 Cd        -6.7531255596        1.1841266196       -0.3182182747
 Cd        -4.0437606329        0.0729837467        3.0511954168
 Cd        -1.7753257667       -0.3121054857        6.8316599018
 Cd        -6.3661028473       -1.4630135273       -3.4383357626
 Cd        -4.3602814436       -3.1214810613       -0.1759283953
 Cd        -2.2424276819       -3.6242998489        3.6335413818
 Cd         0.1757294635       -3.9625201566        7.0364714760
 Cd        -4.2692200317       -5.9860442556       -3.0005266361
 Cd        -2.2482225396       -6.7972628816        0.6786391664
 Cd         0.0669003827       -7.3030327295        3.8545421700
 Cd        -4.0792754193        7.4105475565        2.4175118797
 Cd        -1.6116442377        6.4880648240        6.2478272306
 Cd        -4.3308002626        4.8127262164       -0.6762739309
 Cd        -1.8326132452        3.6694977750        3.1598212265
 Cd         0.4939817277        3.1637060931        6.7202662426
 Cd        -4.5980154021        1.9988297698       -4.0880170010
 Cd        -2.1651194586        1.0165564496       -0.4536921834
 Cd         0.1376109507       -0.0659106884        3.1336818174
 Cd         2.6419074521       -0.6636939286        6.8958319365
 Cd        -4.1515129292       -0.5348426091       -6.9620217917
 Cd        -2.2012490343       -1.8491984656       -3.4894107829
 Cd         0.0359311218       -2.8494155653       -0.0264680683
 Cd         2.4407298775       -3.8224684908        3.5289587884
 Cd         4.5907434619       -4.2169180472        6.5928471603
 Cd        -2.6321953796       -4.5685798778       -6.0773989300
 Cd        -0.3638438279       -6.1221236347       -3.0620735359
 Cd         1.9882729153       -6.8506852632       -0.0376753302
 Cd         4.3604701588       -7.5063202656        3.0981086138
 Cd        -2.4313710890        8.2839908015       -1.2010761441
 Cd         0.1210964618        6.7915494583        2.0748938605
 Cd         2.2602783261        6.3879934074        5.9824457591
 Cd        -2.2743307721        5.5403016700       -4.1096429978
 Cd         0.1552258413        4.6164378819       -0.9814446932
 Cd         2.6173372932        3.7540356816        2.4616712460
 Cd         4.3934694910        2.5024270436        5.6448470259
 Cd        -2.3839877703        3.0961459608       -7.5397423510
 Cd        -0.1308699873        1.7716472388       -4.3458913396
 Cd         2.1522040622        0.8595996928       -0.9600505658
 Cd         4.3027041934       -0.4425155449        2.5248589789
 Cd         6.4943132815       -0.6514444341        6.0110723312
 Cd         0.4032906214       -0.5920449882       -7.0625722312
 Cd         2.1504065746       -1.8410095193       -3.9631978812
 Cd         4.1282053355       -2.9764966895       -0.5499119195
 Cd         6.9189885741       -3.8001688729        2.8840486736
 Cd         1.0693858855       -4.7693596381       -6.7909688629
 Cd         3.6529341800       -5.7620820022       -3.6150795142
 Cd         5.7341856059       -6.5625995016       -0.3323817960
 Cd         2.4532379782        8.1225833618       -1.1556872380
 Cd         4.4025673150        7.2904811152        1.7928276254
 Cd         2.3800547108        5.2453457502       -4.8107637235
 Cd         4.8184663347        4.7191125514       -1.4277792117
 Cd         6.7589411702        3.8390778732        2.0295448973
 Cd         2.6210634084        2.7844913241       -7.7035228004
 Cd         4.8495943395        1.7843685348       -4.5225056138
 Cd         6.7261500983        1.0662237140       -0.9642295531
 Cd         8.8881450478        0.4141445330        2.4369093904
 Cd         4.3615782352       -0.9213178924       -7.7328888960
 Cd         6.7438649008       -1.9767569930       -4.2031112584
 Cd         8.5272445020       -2.6218905711       -0.2551455218
 Se        -9.0557725106        0.2424574140        0.9180313808
 Se        -6.3745872764       -0.6570220647        4.4225742627
 Se        -3.9358548519       -1.3506397678        8.2925868769
 Se        -6.5830028390       -3.7408669090        1.3890860046
 Se        -4.5802302415       -4.2716541219        4.8585926421
 Se        -4.6110671623       -7.7792240778        1.5343213278
 Se        -6.6407812351        3.9866809498        0.4586064126
 Se        -4.0705866514        2.6241591830        3.9150270775
 Se        -1.6315747320        2.0143859544        7.9219454430
 Se        -6.7106235468        0.9827493806       -3.1628202938
 Se        -4.4077684895       -0.2106461950        0.3970531668
 Se        -2.0534879979       -1.1190641497        4.2604482105
 Se         0.4069246601       -1.5676855049        8.0617057342
 Se        -4.4126107232       -3.1307459794       -2.8028288282
 Se        -2.2371864822       -4.0884616040        0.9473336128
 Se         0.1541797359       -4.8148952714        4.4843326207
 Se        -2.4147106009       -7.4199706225       -2.0529393442
 Se        -0.0662571417       -7.8800811154        1.3078284855
 Se        -4.5519687636        7.5920037884       -0.0122560791
 Se        -1.8482840651        6.3647212661        3.5390459072
 Se         0.4006735392        5.8241498358        7.5878867146
 Se        -4.4655945585        4.5529209660       -3.3484418515
 Se        -2.0798083538        3.7153034916        0.3451575142
 Se         0.4973892782        2.6967113851        3.7286137790
 Se         2.7724753484        1.9958260876        7.6298945277
 Se        -4.6126224962        2.0736182894       -6.9031574659
 Se        -2.2770211290        0.8531533747       -3.1284312065
 Se         0.0138865169       -0.1636477002        0.3858468104
 Se         2.3115473387       -1.3198431962        4.0017354986
 Se         4.8624545925       -1.8855864388        7.7371297607
 Se        -2.0700877949       -1.9675257511       -6.4603372509
 Se        -0.0447057629       -3.1582708631       -2.8090856920
 Se         2.2343306950       -4.2299664240        0.7817840723
 Se         4.8342987615       -4.9516929708        4.0974643468
 Se        -0.7556003326       -6.2829108386       -5.8406699955
 Se         1.9243057511       -7.4784768035       -2.6074198353
 Se         4.2543989663       -8.3809591814        0.7363809319
 Se         0.0386925703        7.3677075300       -0.4939635450
 Se         2.3791568525        6.5289221229        3.1400383851
 Se         0.0465974103        4.4270318221       -3.5936563407
 Se         2.5167269427        3.6273521599       -0.0581806204
 Se         4.7705604635        2.4670139639        3.1233546104
 Se         0.0435933033        1.9323944164       -6.9695738842
 Se         2.2733127965        0.7623703678       -3.6584263160
 Se         4.3816175435       -0.2841549253       -0.0177063702
 Se         6.9670500347       -1.1290204494        3.5565582379
 Se         2.2410869402       -2.2702007814       -6.6798205275
 Se         4.3723294721       -3.1971869108       -3.2130677403
 Se         6.4331938555       -4.1098532443        0.4136420186
 Se         4.8503033307        7.5509093293       -0.7463548497
 Se         4.8776288797        4.5477652435       -4.0091414448
 Se         7.0830986217        3.5950723552       -0.6434567968
 Se         4.7810064642        1.5273410534       -7.5566303287
 Se         6.9188050062        0.6130038217       -3.7081238627
 Se         9.1066871843       -0.0609359671       -0.0919647969
  C         6.9955771113       -6.9586634775       -2.8583426301
  H         7.7780160969       -7.1271873265       -3.6573399650
  O         5.8389952916       -6.4652991204       -3.1445809228
  O         7.2920676004       -7.2683568805       -1.6893132711
  C         3.3939431960       -6.2668607509       -6.9513074648
  H         4.3245440932       -6.8689211647       -7.0591687882
  O         3.0202466073       -5.7860511295       -5.7843136273
  O         2.6220129789       -6.1746538788       -7.9242101403
  C         6.3116555909       -2.9071154185       -7.4921130606
  H         7.0978863851       -3.7212906458       -7.4285512081
  O         6.0096715894       -2.3219711192       -6.3505932827
  O         5.9403243477       -2.4750431756       -8.6116316973
  C         8.9837561036       -3.3697375837       -3.4349055328
  H         9.9249943929       -3.8864043165       -3.1840078659
  O         8.5659407989       -3.4209184445       -4.6048832464
  O         8.2714489672       -2.6971151254       -2.5207012617
  C         9.7902109758       -4.6282247391        2.1768529346
  H        10.6284324694       -5.3337138149        2.3552924638
  O         9.7484501532       -4.1824896055        0.9942458601
  O         9.0219926648       -4.5705851174        3.1873629795
  C        -2.8252708508       -8.8894178348        5.3653894160
  H        -2.3915771747       -9.8892286280        5.4446685031
  O        -1.9808601030       -7.9304545651        5.0436955975
  O        -4.0908415257       -8.7280019527        5.4030844137
  C         3.0047406823       -8.6887063298        5.2919739424
  H         2.6853413808       -9.0312323512        6.2714246943
  O         1.9985977812       -8.3553887881        4.5599054594
  O         4.2197147413       -8.6069092298        4.9235206312
  C         2.8732291572       -5.7090624943        8.2322507888
  H         2.4095730423       -6.3582442170        8.9295273658
  O         2.2236878889       -4.8031284854        7.6183804854
  O         4.1525405945       -5.8988692439        8.1468427445
  C        -2.5324052264       -5.9090323801        8.5168983878
  H        -2.0058427467       -6.7599986745        9.0204193621
  O        -1.9189018681       -5.2527647032        7.5983339134
  O        -3.6521974131       -5.4981014961        8.8936623702
  C        -6.8661340661        2.3082426882        7.3884767521
  H        -7.2433530482        3.2983326111        7.3747512577
  O        -5.6189307919        2.1553364867        7.5292857639
  O        -7.6694328727        1.3672322100        7.2032576312
  C        -4.1128935570        6.2776012356        7.2258109093
  H        -5.2184092536        6.2949225170        7.4003980339
  O        -3.5215502414        5.2331222329        6.7794929280
  O        -3.5956064510        7.4679880815        7.3184340370
  C        -6.2584500423        7.1467273309        4.0778865765
  H        -7.2018864753        7.1620259062        4.6862261037
  O        -5.8042352338        6.0508881806        3.6277903665
  O        -5.6141473350        8.2227071687        3.8530055117
  C        -9.2670155991        2.9624473135        4.4549609073
  H        -9.7760873251        3.8307467380        4.7753730710
  O        -8.0580447847        3.0137717908        4.1153681461
  O       -10.0869615960        1.9755230626        4.3964141791
  C        -9.5997958208       -3.5202239981        4.2555074891
  H       -10.6284324694       -3.6062117458        4.7363993397
  O        -9.3836198173       -2.7271085544        3.2939504316
  O        -8.6749593009       -4.3055307223        4.7674147240
  C        -5.4063829718       -6.0836320759       -6.1576393485
  H        -6.0390997038       -6.5934387315       -6.8768176703
  O        -5.3157147411       -6.5042627408       -4.9638375967
  O        -4.7997118332       -5.0931497246       -6.6842330004
  C        -7.4812021438       -7.2683192216       -1.8337008205
  H        -7.8430239833       -7.7214409635       -2.7403108931
  O        -6.3847231004       -6.5596142310       -1.8855223803
  O        -8.0870004405       -7.4369608581       -0.7449951352
  C        -9.2637717352       -3.4248031045       -2.1287629167
  H        -9.5435102925       -4.0726156799       -2.9624854104
  O        -8.1685743898       -2.7562864935       -2.2769679175
  O        -9.8293124780       -3.4993302663       -1.0042472880
  C        -6.7198117275       -1.5155721631       -7.0057360974
  H        -7.7266400310       -1.9701098143       -7.1795729881
  O        -6.3208037730       -1.2812141421       -5.7891801227
  O        -6.0546670581       -1.2647410752       -8.0219575549
  C        -1.9610306020        5.6962737072       -7.4797868569
  H        -1.8068881661        6.7616764611       -7.4798700689
  O        -2.4613788677        5.1953402046       -6.4147373301
  O        -1.7592038190        5.0404242691       -8.5376948407
  C        -1.7153677193        9.0065729983       -3.7807068554
  H        -1.3518565997        9.2891789052       -4.8285272378
  O        -1.7735635219        7.7204009534       -3.5311974415
  O        -1.9589811591        9.8892286280       -2.9296575010
  C         2.5176986766        8.6527359013       -4.1276241396
  H         2.7356319561        9.0838176512       -5.0545617483
  O         2.0941304229        7.4607563111       -4.0382054964
  O         2.6632020791        9.4136986823       -3.1567247192
  C         1.7405814703        5.3615037054       -8.2026998584
  H         1.4592813282        6.4433815072       -8.3446733349
  O         2.2712544771        5.0744229803       -7.0359036782
  O         1.5374971892        4.4786315137       -9.0204193621
  C         9.4791869119        2.6134878200        3.9079418032
  H         9.6264681644        3.4611325178        4.5867541287
  O         8.5294682966        2.7206869475        3.0468687327
  O        10.1884170796        1.5361363159        4.0354546634
  C         6.6320899766        7.0427804887        3.3240585285
  H         7.5183451153        7.1103565644        4.0025867163
  O         6.4921259472        6.1579139584        2.4473334656
  O         5.8014508194        7.8970951585        3.5804466065
  C         4.7468288793        5.8510846562        6.9391041765
  H         5.6837062732        5.7110173508        7.4566454645
  O         4.3315486404        4.9881730889        6.0840680113
  O         4.1390624477        6.9214380767        7.1338855679
  C         7.5642974957        1.7429307679        7.1823006621
  H         8.1116275708        2.6102062210        7.6466333920
  O         6.7423080014        2.0330978891        6.2208765696
  O         7.8434776238        0.5800715711        7.5931108165
     227
 i =        1, time =        1.000, E =        -8.6210747314
 Cd        -8.6193379203        0.4796302088        3.4771830475
 Cd        -5.8715640723       -0.2571921380        7.1143832585
 Cd        -8.4082164112       -2.1541513789        0.3852231121
 Cd        -6.8927188162       -3.2917923252        3.9610995132
 Cd        -3.6901808537       -3.7004031564        7.3823580954
 Cd        -6.4419803618       -6.2357461119        0.4642832199
 Cd        -4.3123483394       -6.8296047801        3.9052393036
 Cd        -6.1163870274        3.8609251771        2.9055901098
 Cd        -3.6066349219        2.8812334743        6.5903804210
 Cd        -6.7534204676        1.1872359077       -0.3192218955
 Cd        -4.0444207700        0.0755171015        3.0501725721
 Cd        -1.7741902126       -0.3125938954        6.8335567339
 Cd        -6.3660934849       -1.4624789281       -3.4401693735
 Cd        -4.3613664996       -3.1217737600       -0.1745499943
 Cd        -2.2426057439       -3.6215922045        3.6336016835
 Cd         0.1786805308       -3.9615979646        7.0369307403
 Cd        -4.2693799562       -5.9881914162       -2.9988630616
 Cd        -2.2487347413       -6.7966009118        0.6791622269
 Cd         0.0677761312       -7.3030069396        3.8542380228
 Cd        -4.0802586132        7.4119294270        2.4182964242
 Cd        -1.6107977672        6.4879537274        6.2509359646
 Cd        -4.3325187046        4.8128138623       -0.6769428783
 Cd        -1.8303900017        3.6696033884        3.1589312960
 Cd         0.4898052664        3.1633527878        6.7205041381
 Cd        -4.5995881381        2.0001062146       -4.0890294327
 Cd        -2.1628952419        1.0181383549       -0.4517482439
 Cd         0.1384245341       -0.0681553244        3.1344028185
 Cd         2.6424443393       -0.6635557759        6.8958724253
 Cd        -4.1540709594       -0.5351460261       -6.9611269943
 Cd        -2.2031790328       -1.8490874269       -3.4900396531
 Cd         0.0358046506       -2.8474781571       -0.0250987981
 Cd         2.4397190289       -3.8215789206        3.5304562715
 Cd         4.5938408322       -4.2151980806        6.5946746154
 Cd        -2.6317044920       -4.5699589029       -6.0785352340
 Cd        -0.3609607724       -6.1210274101       -3.0631320666
 Cd         1.9864188097       -6.8523295203       -0.0374529485
 Cd         4.3578776020       -7.5049967982        3.0973831091
 Cd        -2.4320303230        8.2867418178       -1.2003606989
 Cd         0.1211449124        6.7911505809        2.0747524265
 Cd         2.2580984190        6.3879479151        5.9825935180
 Cd        -2.2740197267        5.5405592603       -4.1121286248
 Cd         0.1544585058        4.6148632204       -0.9823191614
 Cd         2.6165092595        3.7533785694        2.4610629358
 Cd         4.3939212492        2.5015265561        5.6447106449
 Cd        -2.3864496526        3.0936949359       -7.5399062508
 Cd        -0.1312607124        1.7709175344       -4.3474099628
 Cd         2.1531555348        0.8600338780       -0.9631981821
 Cd         4.3034803953       -0.4402562164        2.5248417469
 Cd         6.4920195382       -0.6517726417        6.0105103815
 Cd         0.4042308304       -0.5927845072       -7.0621442629
 Cd         2.1512963797       -1.8411075205       -3.9633270420
 Cd         4.1299725231       -2.9780113233       -0.5482317913
 Cd         6.9198159923       -3.7969637917        2.8855651417
 Cd         1.0695524987       -4.7691642890       -6.7906910788
 Cd         3.6506272571       -5.7625065530       -3.6176988535
 Cd         5.7329356209       -6.5639967611       -0.3327606430
 Cd         2.4550845996        8.1223157421       -1.1566113850
 Cd         4.4053535967        7.2898044305        1.7948190548
 Cd         2.3804035820        5.2452000350       -4.8086990894
 Cd         4.8189550719        4.7184647527       -1.4283759305
 Cd         6.7582313476        3.8401612554        2.0311376137
 Cd         2.6217613084        2.7829117351       -7.7033799118
 Cd         4.8492927282        1.7846865185       -4.5231522375
 Cd         6.7276982219        1.0649829548       -0.9631041195
 Cd         8.8867437009        0.4155709977        2.4348100900
 Cd         4.3617839844       -0.9226577762       -7.7309349497
 Cd         6.7427615928       -1.9756191526       -4.2012601824
 Cd         8.5291374951       -2.6208024515       -0.2527772174
 Se        -9.0548442298        0.2429460326        0.9182862890
 Se        -6.3727763464       -0.6564764478        4.4183226209
 Se        -3.9345061147       -1.3489239629        8.2966289768
 Se        -6.5831216161       -3.7425499313        1.3880571106
 Se        -4.5790813510       -4.2748784474        4.8597673374
 Se        -4.6122475015       -7.7766708188        1.5328183792
 Se        -6.6423350224        3.9855690851        0.4576328057
 Se        -4.0719826530        2.6208423149        3.9143297913
 Se        -1.6332892254        2.0117783720        7.9252234268
 Se        -6.7117863844        0.9829630052       -3.1654379743
 Se        -4.4070938949       -0.2112020126        0.3948812386
 Se        -2.0531167731       -1.1153278681        4.2594106932
 Se         0.4059955223       -1.5661454355        8.0651408982
 Se        -4.4160932237       -3.1300341815       -2.8047029292
 Se        -2.2374166955       -4.0915969480        0.9472125379
 Se         0.1530410197       -4.8127437839        4.4858223107
 Se        -2.4165573140       -7.4207037435       -2.0539370355
 Se        -0.0669138086       -7.8792270418        1.3095471597
 Se        -4.5522283387        7.5948605994       -0.0126621721
 Se        -1.8468249318        6.3633197966        3.5401342503
 Se         0.4037154771        5.8261519233        7.5859965570
 Se        -4.4661166377        4.5539866787       -3.3489565270
 Se        -2.0809833401        3.7152436008        0.3431775847
 Se         0.4982515805        2.6969790746        3.7287185686
 Se         2.7718026193        1.9958782969        7.6262819134
 Se        -4.6132672406        2.0747875938       -6.9049233606
 Se        -2.2789087010        0.8535194256       -3.1261088718
 Se         0.0145754166       -0.1632279211        0.3854081143
 Se         2.3129746499       -1.3188834329        3.9990605885
 Se         4.8631801226       -1.8842948956        7.7354827627
 Se        -2.0701740682       -1.9664274046       -6.4603950063
 Se        -0.0446936068       -3.1599633370       -2.8087890359
 Se         2.2323159412       -4.2314784533        0.7809459394
 Se         4.8362504556       -4.9531325830        4.0967263530
 Se        -0.7551510660       -6.2849229197       -5.8413976221
 Se         1.9250157963       -7.4791140809       -2.6076607500
 Se         4.2593535182       -8.3792834778        0.7363637528
 Se         0.0356246385        7.3686475776       -0.4913546700
 Se         2.3809507085        6.5252155177        3.1425454957
 Se         0.0437433188        4.4288355197       -3.5940289490
 Se         2.5163992590        3.6274360245       -0.0569141584
 Se         4.7727410899        2.4661529613        3.1253132373
 Se         0.0455140452        1.9300246191       -6.9705626691
 Se         2.2758587667        0.7648666396       -3.6570761509
 Se         4.3766822913       -0.2853645305       -0.0178542998
 Se         6.9677312163       -1.1294461547        3.5582078117
 Se         2.2370499790       -2.2682383990       -6.6837909577
 Se         4.3737688523       -3.1974932583       -3.2156811811
 Se         6.4331498614       -4.1117006988        0.4129155172
 Se         4.8516533681        7.5524261366       -0.7459574689
 Se         4.8775112672        4.5490031740       -4.0122975538
 Se         7.0856591700        3.5935137398       -0.6428982229
 Se         4.7817954269        1.5264768846       -7.5555507848
 Se         6.9186432620        0.6112200471       -3.7073702434
 Se         9.1069273577       -0.0626745845       -0.0923753173
  C         6.9966784180       -6.9498403875       -2.8612695353
  H         7.7649322095       -7.1224747738       -3.6684216540
  O         5.8441436446       -6.4672930872       -3.1400747511
  O         7.2888120525       -7.2742674416       -1.6938563308
  C         3.3950656367       -6.2673063970       -6.9491811971
  H         4.3444066225       -6.8936096686       -7.0753272229
  O         3.0188541277       -5.7909443537       -5.7821959374
  O         2.6177907450       -6.1689833504       -7.9240438332
  C         6.3106279522       -2.9078505355       -7.4910559758
  H         7.1299137504       -3.7048862282       -7.4466889051
  O         6.0085258245       -2.3182399701       -6.3476105596
  O         5.9394390315       -2.4743160302       -8.6125123424
  C         8.9774485829       -3.3708806502       -3.4296489429
  H         9.9250180562       -3.8774829974       -3.1826003730
  O         8.5683727655       -3.4149501203       -4.6046423338
  O         8.2717922332       -2.6967465959       -2.5201892020
  C         9.7980748670       -4.6252009892        2.1809981788
  H        10.6408655401       -5.3318691344        2.3887999993
  O         9.7472451780       -4.1806015524        0.9926810720
  O         9.0288228988       -4.5682120539        3.1870823785
  C        -2.8217312186       -8.8884384779        5.3598597299
  H        -2.4154187803       -9.9024293192        5.4343946394
  O        -1.9848002850       -7.9306825292        5.0423743234
  O        -4.0904560638       -8.7275082478        5.4044730678
  C         2.9969219326       -8.6916228942        5.2874265753
  H         2.6967725338       -9.0398269484        6.2934215078
  O         1.9994804721       -8.3579574576        4.5594846508
  O         4.2233345221       -8.6008675876        4.9159441305
  C         2.8793045202       -5.7053269533        8.2324281456
  H         2.3955873073       -6.3773024893        8.9303283437
  O         2.2191451456       -4.8089289459        7.6164213795
  O         4.1498086455       -5.9035915218        8.1537051092
  C        -2.5347133329       -5.9173478169        8.5220072623
  H        -2.0052498086       -6.7390725628        9.0096019785
  O        -1.9213578148       -5.2584541377        7.5983710086
  O        -3.6522398487       -5.5085174206        8.8928550431
  C        -6.8630680927        2.3027059006        7.3892074595
  H        -7.2086193538        3.3071349018        7.3885257928
  O        -5.6214349772        2.1591414551        7.5337815477
  O        -7.6696247137        1.3703341404        7.1999679432
  C        -4.1169963053        6.2828046270        7.2281921794
  H        -5.2418933127        6.2896177269        7.3832000201
  O        -3.5267996638        5.2291018764        6.7738890099
  O        -3.5911447424        7.4673623372        7.3180901588
  C        -6.2567433978        7.1462441403        4.0780923975
  H        -7.2111390447        7.1649409639        4.6689854642
  O        -5.8090753179        6.0479917917        3.6279582707
  O        -5.6129414124        8.2208186088        3.8488864269
  C        -9.2742218019        2.9617577574        4.4604767599
  H        -9.7855372140        3.8838940690        4.7760086716
  O        -8.0588921332        3.0118991515        4.1193256394
  O       -10.0812352357        1.9794035666        4.3922813457
  C        -9.6032808385       -3.5282208514        4.2551676771
  H       -10.5971720209       -3.6001750875        4.7566807035
  O        -9.3833489283       -2.7227896059        3.2942854337
  O        -8.6788920494       -4.3018469438        4.7631142513
  C        -5.4081382360       -6.0792352001       -6.1561959037
  H        -6.0546960796       -6.5859836395       -6.8890942905
  O        -5.3111371648       -6.5041446671       -4.9653825389
  O        -4.7985764878       -5.0927881392       -6.6853576728
  C        -7.4874945961       -7.2705753622       -1.8347937874
  H        -7.8388434959       -7.7173330376       -2.7530342297
  O        -6.3888127968       -6.5550277953       -1.8843926835
  O        -8.0717831564       -7.4409782617       -0.7458972936
  C        -9.2562802842       -3.4269973258       -2.1219765265
  H        -9.5270787848       -4.0663584857       -2.9594189931
  O        -8.1698798033       -2.7554392923       -2.2726986427
  O        -9.8242899491       -3.4940253514       -1.0092718267
  C        -6.7207108503       -1.5101430285       -7.0046022253
  H        -7.7450574417       -1.9674181007       -7.1698505571
  O        -6.3198640881       -1.2781452634       -5.7991726369
  O        -6.0634769366       -1.2635389932       -8.0156126750
  C        -1.9629105541        5.6954908198       -7.4853200000
  H        -1.7770888886        6.7764005651       -7.4923242406
  O        -2.4611926408        5.1868133723       -6.4088282925
  O        -1.7563460067        5.0406229816       -8.5284621627
  C        -1.7168962226        9.0075126393       -3.7839136524
  H        -1.3493405476        9.2660238074       -4.8465614694
  O        -1.7700208471        7.7196507278       -3.5246683252
  O        -1.9637361752        9.8896556650       -2.9409183306
  C         2.5062429499        8.6538907477       -4.1272905449
  H         2.7131102182        9.0638249498       -5.0476060874
  O         2.0944544647        7.4533830516       -4.0306872823
  O         2.6627583185        9.4112362337       -3.1553455505
  C         1.7411625387        5.3672432792       -8.1968701409
  H         1.4358383610        6.4416008070       -8.3632925476
  O         2.2781343630        5.0766860261       -7.0409854698
  O         1.5312082588        4.4834497460       -9.0176533029
  C         9.4768902707        2.6096284819        3.8999975206
  H         9.6131090334        3.4671477718        4.5843902861
  O         8.5281264570        2.7173774006        3.0492834169
  O        10.1886289457        1.5402215043        4.0331974637
  C         6.6326630841        7.0383107958        3.3282005622
  H         7.5082674956        7.1289998248        4.0070788575
  O         6.4945411635        6.1605118849        2.4466120742
  O         5.7955879265        7.9030542563        3.5814020224
  C         4.7447655783        5.8524856166        6.9354043358
  H         5.7085862008        5.7040540943        7.4370666698
  O         4.3286493287        4.9885813621        6.0815439971
  O         4.1458722198        6.9224671058        7.1372916260
  C         7.5603391568        1.7452806677        7.1878898791
  H         8.1158840311        2.6116602203        7.6593692779
  O         6.7459509982        2.0302475834        6.2244911085
  O         7.8435704623        0.5822053739        7.5895926156
     227
 i =        2, time =        2.000, E =        -8.6372486501
 Cd        -8.6169796009        0.4782692605        3.4768200128
 Cd        -5.8708772357       -0.2576434573        7.1135966378
 Cd        -8.4088686252       -2.1552407503        0.3836287237
 Cd        -6.8896514503       -3.2938684181        3.9621615630