     227
 i =        0, time =        0.000, E =        -7.5331682034
 Cd        -8.6216924880        0.4810107428        3.4775887729
 Cd        -5.8723589632       -0.2566559957        7.1151373767
 Cd        -8.4076147924       -2.1531404527        0.3867588804
 Cd        -6.8957642261       -3.2896665849        3.9600318291
 Cd        -3.6930098048       -3.6992689615        7.3819491709
 Cd        -6.4429261463       -6.2347087238        0.4622469067
 Cd        -4.3123952394       -6.8285875372        3.9039095072
 Cd        -6.1141073353        3.8626235599        2.9066844924
 Cd        -3.6048790416        2.8797284733        6.5917986711
 Cd        -6.7531255596        1.1841266196       -0.3182182747
 Cd        -4.0437606329        0.0729837467        3.0511954168
 Cd        -1.7753257667       -0.3121054857        6.8316599018
 Cd        -6.3661028473       -1.4630135273       -3.4383357626
 Cd        -4.3602814436       -3.1214810613       -0.1759283953
 Cd        -2.2424276819       -3.6242998489        3.6335413818
 Cd         0.1757294635       -3.9625201566        7.0364714760
 Cd        -4.2692200317       -5.9860442556       -3.0005266361
 Cd        -2.2482225396       -6.7972628816        0.6786391664
 Cd         0.0669003827       -7.3030327295        3.8545421700
 Cd        -4.0792754193        7.4105475565        2.4175118797
 Cd        -1.6116442377        6.4880648240        6.2478272306
 Cd        -4.3308002626        4.8127262164       -0.6762739309
 Cd        -1.8326132452        3.6694977750        3.1598212265
 Cd         0.4939817277        3.1637060931        6.7202662426
 Cd        -4.5980154021        1.9988297698       -4.0880170010
 Cd        -2.1651194586        1.0165564496       -0.4536921834
 Cd         0.1376109507       -0.0659106884        3.1336818174
 Cd         2.6419074521       -0.6636939286        6.8958319365
 Cd        -4.1515129292       -0.5348426091       -6.9620217917
 Cd        -2.2012490343       -1.8491984656       -3.4894107829
 Cd         0.0359311218       -2.8494155653       -0.0264680683
 Cd         2.4407298775       -3.8224684908        3.5289587884
 Cd         4.5907434619       -4.2169180472        6.5928471603
 Cd        -2.6321953796       -4.5685798778       -6.0773989300
 Cd        -0.3638438279       -6.1221236347       -3.0620735359
 Cd         1.9882729153       -6.8506852632       -0.0376753302
 Cd         4.3604701588       -7.5063202656        3.0981086138
 Cd        -2.4313710890        8.2839908015       -1.2010761441
 Cd         0.1210964618        6.7915494583        2.0748938605
 Cd         2.2602783261        6.3879934074        5.9824457591
 Cd        -2.2743307721        5.5403016700       -4.1096429978
 Cd         0.1552258413        4.6164378819       -0.9814446932
 Cd         2.6173372932        3.7540356816        2.4616712460
 Cd         4.3934694910        2.5024270436        5.6448470259
 Cd        -2.3839877703        3.0961459608       -7.5397423510
 Cd        -0.1308699873        1.7716472388       -4.3458913396
 Cd         2.1522040622        0.8595996928       -0.9600505658
 Cd         4.3027041934       -0.4425155449        2.5248589789
 Cd         6.4943132815       -0.6514444341        6.0110723312
 Cd         0.4032906214       -0.5920449882       -7.0625722312
 Cd         2.1504065746       -1.8410095193       -3.9631978812
 Cd         4.1282053355       -2.9764966895       -0.5499119195
 Cd         6.9189885741       -3.8001688729        2.8840486736
 Cd         1.0693858855       -4.7693596381       -6.7909688629
 Cd         3.6529341800       -5.7620820022       -3.6150795142
 Cd         5.7341856059       -6.5625995016       -0.3323817960
 Cd         2.4532379782        8.1225833618       -1.1556872380
 Cd         4.4025673150        7.2904811152        1.7928276254
 Cd         2.3800547108        5.2453457502       -4.8107637235
 Cd         4.8184663347        4.7191125514       -1.4277792117
 Cd         6.7589411702        3.8390778732        2.0295448973
 Cd         2.6210634084        2.7844913241       -7.7035228004
 Cd         4.8495943395        1.7843685348       -4.5225056138
 Cd         6.7261500983        1.0662237140       -0.9642295531
 Cd         8.8881450478        0.4141445330        2.4369093904
 Cd         4.3615782352       -0.9213178924       -7.7328888960
 Cd         6.7438649008       -1.9767569930       -4.2031112584
 Cd         8.5272445020       -2.6218905711       -0.2551455218
 Se        -9.0557725106        0.2424574140        0.9180313808
 Se        -6.3745872764       -0.6570220647        4.4225742627
 Se        -3.9358548519       -1.3506397678        8.2925868769
 Se        -6.5830028390       -3.7408669090        1.3890860046
 Se        -4.5802302415       -4.2716541219        4.8585926421
 Se        -4.6110671623       -7.7792240778        1.5343213278
 Se        -6.6407812351        3.9866809498        0.4586064126
 Se        -4.0705866514        2.6241591830        3.9150270775
 Se        -1.6315747320        2.0143859544        7.9219454430
 Se        -6.7106235468        0.9827493806       -3.1628202938
 Se        -4.4077684895       -0.2106461950        0.3970531668
 Se        -2.0534879979       -1.1190641497        4.2604482105
 Se         0.4069246601       -1.5676855049        8.0617057342
 Se        -4.4126107232       -3.1307459794       -2.8028288282
 Se        -2.2371864822       -4.0884616040        0.9473336128
 Se         0.1541797359       -4.8148952714        4.4843326207
 Se        -2.4147106009       -7.4199706225       -2.0529393442
 Se        -0.0662571417       -7.8800811154        1.3078284855
 Se        -4.5519687636        7.5920037884       -0.0122560791
 Se        -1.8482840651        6.3647212661        3.5390459072
 Se         0.4006735392        5.8241498358        7.5878867146
 Se        -4.4655945585        4.5529209660       -3.3484418515
 Se        -2.0798083538        3.7153034916        0.3451575142
 Se         0.4973892782        2.6967113851        3.7286137790
 Se         2.7724753484        1.9958260876        7.6298945277
 Se        -4.6126224962        2.0736182894       -6.9031574659
 Se        -2.2770211290        0.8531533747       -3.1284312065
 Se         0.0138865169       -0.1636477002        0.3858468104
 Se         2.3115473387       -1.3198431962        4.0017354986
 Se         4.8624545925       -1.8855864388        7.7371297607
 Se        -2.0700877949       -1.9675257511       -6.4603372509
 Se        -0.0447057629       -3.1582708631       -2.8090856920
 Se         2.2343306950       -4.2299664240        0.7817840723
 Se         4.8342987615       -4.9516929708        4.0974643468
 Se        -0.7556003326       -6.2829108386       -5.8406699955
 Se         1.9243057511       -7.4784768035       -2.6074198353
 Se         4.2543989663       -8.3809591814        0.7363809319
 Se         0.0386925703        7.3677075300       -0.4939635450
 Se         2.3791568525        6.5289221229        3.1400383851
 Se         0.0465974103        4.4270318221       -3.5936563407
 Se         2.5167269427        3.6273521599       -0.0581806204
 Se         4.7705604635        2.4670139639        3.1233546104
 Se         0.0435933033        1.9323944164       -6.9695738842
 Se         2.2733127965        0.7623703678       -3.6584263160
 Se         4.3816175435       -0.2841549253       -0.0177063702
 Se         6.9670500347       -1.1290204494        3.5565582379
 Se         2.2410869402       -2.2702007814       -6.6798205275
 Se         4.3723294721       -3.1971869108       -3.2130677403
 Se         6.4331938555       -4.1098532443        0.4136420186
 Se         4.8503033307        7.5509093293       -0.7463548497
 Se         4.8776288797        4.5477652435       -4.0091414448
 Se         7.0830986217        3.5950723552       -0.6434567968
 Se         4.7810064642        1.5273410534       -7.5566303287
 Se         6.9188050062        0.6130038217       -3.7081238627
 Se         9.1066871843       -0.0609359671       -0.0919647969
  C         6.9955771113       -6.9586634775       -2.8583426301
  H         7.7780160969       -7.1271873265       -3.6573399650
  O         5.8389952916       -6.4652991204       -3.1445809228
  O         7.2920676004       -7.2683568805       -1.6893132711
  C         3.3939431960       -6.2668607509       -6.9513074648
  H         4.3245440932       -6.8689211647       -7.0591687882
  O         3.0202466073       -5.7860511295       -5.7843136273
  O         2.6220129789       -6.1746538788       -7.9242101403
  C         6.3116555909       -2.9071154185       -7.4921130606
  H         7.0978863851       -3.7212906458       -7.4285512081
  O         6.0096715894       -2.3219711192       -6.3505932827
  O         5.9403243477       -2.4750431756       -8.6116316973
  C         8.9837561036       -3.3697375837       -3.4349055328
  H         9.9249943929       -3.8864043165       -3.1840078659
  O         8.5659407989       -3.4209184445       -4.6048832464
  O         8.2714489672       -2.6971151254       -2.5207012617
  C         9.7902109758       -4.6282247391        2.1768529346
  H        10.6284324694       -5.3337138149        2.3552924638
  O         9.7484501532       -4.1824896055        0.9942458601
  O         9.0219926648       -4.5705851174        3.1873629795
  C        -2.8252708508       -8.8894178348        5.3653894160
  H        -2.3915771747       -9.8892286280        5.4446685031
  O        -1.9808601030       -7.9304545651        5.0436955975
  O        -4.0908415257       -8.7280019527        5.4030844137
  C         3.0047406823       -8.6887063298        5.2919739424
  H         2.6853413808       -9.0312323512        6.2714246943
  O         1.9985977812       -8.3553887881        4.5599054594
  O         4.2197147413       -8.6069092298        4.9235206312
  C         2.8732291572       -5.7090624943        8.2322507888
  H         2.4095730423       -6.3582442170        8.9295273658
  O         2.2236878889       -4.8031284854        7.6183804854
  O         4.1525405945       -5.8988692439        8.1468427445
  C        -2.5324052264       -5.9090323801        8.5168983878
  H        -2.0058427467       -6.7599986745        9.0204193621
  O        -1.9189018681       -5.2527647032        7.5983339134
  O        -3.6521974131       -5.4981014961        8.8936623702
  C        -6.8661340661        2.3082426882        7.3884767521
  H        -7.2433530482        3.2983326111        7.3747512577
  O        -5.6189307919        2.1553364867        7.5292857639
  O        -7.6694328727        1.3672322100        7.2032576312
  C        -4.1128935570        6.2776012356        7.2258109093
  H        -5.2184092536        6.2949225170        7.4003980339
  O        -3.5215502414        5.2331222329        6.7794929280
  O        -3.5956064510        7.4679880815        7.3184340370
  C        -6.2584500423        7.1467273309        4.0778865765
  H        -7.2018864753        7.1620259062        4.6862261037
  O        -5.8042352338        6.0508881806        3.6277903665
  O        -5.6141473350        8.2227071687        3.8530055117
  C        -9.2670155991        2.9624473135        4.4549609073
  H        -9.7760873251        3.8307467380        4.7753730710
  O        -8.0580447847        3.0137717908        4.1153681461
  O       -10.0869615960        1.9755230626        4.3964141791
  C        -9.5997958208       -3.5202239981        4.2555074891
  H       -10.6284324694       -3.6062117458        4.7363993397
  O        -9.3836198173       -2.7271085544        3.2939504316
  O        -8.6749593009       -4.3055307223        4.7674147240
  C        -5.4063829718       -6.0836320759       -6.1576393485
  H        -6.0390997038       -6.5934387315       -6.8768176703
  O        -5.3157147411       -6.5042627408       -4.9638375967
  O        -4.7997118332       -5.0931497246       -6.6842330004
  C        -7.4812021438       -7.2683192216       -1.8337008205
  H        -7.8430239833       -7.7214409635       -2.7403108931
  O        -6.3847231004       -6.5596142310       -1.8855223803
  O        -8.0870004405       -7.4369608581       -0.7449951352
  C        -9.2637717352       -3.4248031045       -2.1287629167
  H        -9.5435102925       -4.0726156799       -2.9624854104
  O        -8.1685743898       -2.7562864935       -2.2769679175
  O        -9.8293124780       -3.4993302663       -1.0042472880
  C        -6.7198117275       -1.5155721631       -7.0057360974
  H        -7.7266400310       -1.9701098143       -7.1795729881
  O        -6.3208037730       -1.2812141421       -5.7891801227
  O        -6.0546670581       -1.2647410752       -8.0219575549
  C        -1.9610306020        5.6962737072       -7.4797868569
  H        -1.8068881661        6.7616764611       -7.4798700689
  O        -2.4613788677        5.1953402046       -6.4147373301
  O        -1.7592038190        5.0404242691       -8.5376948407
  C        -1.7153677193        9.0065729983       -3.7807068554
  H        -1.3518565997        9.2891789052       -4.8285272378
  O        -1.7735635219        7.7204009534       -3.5311974415
  O        -1.9589811591        9.8892286280       -2.9296575010
  C         2.5176986766        8.6527359013       -4.1276241396
  H         2.7356319561        9.0838176512       -5.0545617483
  O         2.0941304229        7.4607563111       -4.0382054964
  O         2.6632020791        9.4136986823       -3.1567247192
  C         1.7405814703        5.3615037054       -8.2026998584
  H         1.4592813282        6.4433815072       -8.3446733349
  O         2.2712544771        5.0744229803       -7.0359036782
  O         1.5374971892        4.4786315137       -9.0204193621
  C         9.4791869119        2.6134878200        3.9079418032
  H         9.6264681644        3.4611325178        4.5867541287
  O         8.5294682966        2.7206869475        3.0468687327
  O        10.1884170796        1.5361363159        4.0354546634
  C         6.6320899766        7.0427804887        3.3240585285
  H         7.5183451153        7.1103565644        4.0025867163
  O         6.4921259472        6.1579139584        2.4473334656
  O         5.8014508194        7.8970951585        3.5804466065
  C         4.7468288793        5.8510846562        6.9391041765
  H         5.6837062732        5.7110173508        7.4566454645
  O         4.3315486404        4.9881730889        6.0840680113
  O         4.1390624477        6.9214380767        7.1338855679
  C         7.5642974957        1.7429307679        7.1823006621
  H         8.1116275708        2.6102062210        7.6466333920
  O         6.7423080014        2.0330978891        6.2208765696
  O         7.8434776238        0.5800715711        7.5931108165
     227
 i =        1, time =        1.000, E =        -7.5425687779
 Cd        -8.6193386442        0.4796299492        3.4771782851
 Cd        -5.8715523619       -0.2571989548        7.1143870508
 Cd        -8.4082124478       -2.1541435370        0.3852288014
 Cd        -6.8927216626       -3.2917981929        3.9610992581
 Cd        -3.6901802784       -3.7003940252        7.3823595655
 Cd        -6.4419751235       -6.2357449031        0.4642852458
 Cd        -4.3123502816       -6.8296038105        3.9052292534
 Cd        -6.1163803330        3.8609243736        2.9055781653
 Cd        -3.6066252993        2.8812290061        6.5903827416
 Cd        -6.7534182737        1.1872326041       -0.3192202012
 Cd        -4.0444129709        0.0755168081        3.0501729498
 Cd        -1.7741910888       -0.3125864401        6.8335538170
 Cd        -6.3660876854       -1.4624641364       -3.4401675127
 Cd        -4.3613584975       -3.1217779242       -0.1745527988
 Cd        -2.2426058543       -3.6215840966        3.6336009317
 Cd         0.1786860808       -3.9615935135        7.0369279585
 Cd        -4.2693703163       -5.9881972293       -2.9988615683
 Cd        -2.2487250919       -6.7966022620        0.6791682383
 Cd         0.0677793656       -7.3029973309        3.8542337694
 Cd        -4.0802611719        7.4119317441        2.4182839772
 Cd        -1.6107862732        6.4879467807        6.2509391964
 Cd        -4.3325146335        4.8128100094       -0.6769418178
 Cd        -1.8303878270        3.6695982707        3.1589350748
 Cd         0.4898045760        3.1633528738        6.7205035360
 Cd        -4.5995938569        2.0001017582       -4.0890215221
 Cd        -2.1628892646        1.0181323968       -0.4517473276
 Cd         0.1384245523       -0.0681591019        3.1344015372
 Cd         2.6424454885       -0.6635577903        6.8958717979
 Cd        -4.1540639259       -0.5351473424       -6.9611265553
 Cd        -2.2031758362       -1.8490910789       -3.4900345432
 Cd         0.0358055951       -2.8474735237       -0.0250978022
 Cd         2.4397169907       -3.8215690402        3.5304584225
 Cd         4.5938425248       -4.2151941602        6.5946698506
 Cd        -2.6316963018       -4.5699612500       -6.0785346854
 Cd        -0.3609634168       -6.1210285486       -3.0631287000
 Cd         1.9864159335       -6.8523269375       -0.0374544225
 Cd         4.3578776520       -7.5050077289        3.0973855088
 Cd        -2.4320379747        8.2867365826       -1.2003515823
 Cd         0.1211449663        6.7911454628        2.0747624834
 Cd         2.2580902312        6.3879456346        5.9826023160
 Cd        -2.2740243567        5.5405525299       -4.1121227497
 Cd         0.1544594709        4.6148604535       -0.9823212166
 Cd         2.6165109754        3.7533723210        2.4610531091
 Cd         4.3939158680        2.5015225009        5.6447025405
 Cd        -2.3864559129        3.0936929908       -7.5399034904
 Cd        -0.1312613978        1.7709129482       -4.3474105381
 Cd         2.1531535544        0.8600289858       -0.9631968608
 Cd         4.3034723200       -0.4402593571        2.5248338747
 Cd         6.4920165998       -0.6517792074        6.0105002443
 Cd         0.4042398887       -0.5927822790       -7.0621400512
 Cd         2.1512956950       -1.8411013269       -3.9633255356
 Cd         4.1299669096       -2.9780128551       -0.5482300132
 Cd         6.9198145276       -3.7969673555        2.8855564395
 Cd         1.0695445098       -4.7691683988       -6.7906869724
 Cd         3.6506220453       -5.7625051674       -3.6177000660
 Cd         5.7329386522       -6.5640010763       -0.3327599476
 Cd         2.4550933176        8.1223094596       -1.1566026642
 Cd         4.4053439627        7.2898014000        1.7948181664
 Cd         2.3804030421        5.2451968233       -4.8087040082
 Cd         4.8189571141        4.7184597629       -1.4283809289
 Cd         6.7582268825        3.8401571505        2.0311375435
 Cd         2.6217721961        2.7829027467       -7.7033781018
 Cd         4.8493014985        1.7846793963       -4.5231460074
 Cd         6.7276971600        1.0649909095       -0.9631012774
 Cd         8.8867418510        0.4155688991        2.4348052254
 Cd         4.3617814899       -0.9226415293       -7.7309337344
 Cd         6.7427611239       -1.9756155186       -4.2012620749
 Cd         8.5291339745       -2.6208009477       -0.2527769638
 Se        -9.0548363167        0.2429327448        0.9182935748
 Se        -6.3727755894       -0.6564762546        4.4183198678
 Se        -3.9345127637       -1.3489252814        8.2966104548
 Se        -6.5831261310       -3.7425445373        1.3880662831
 Se        -4.5790856073       -4.2748659400        4.8597586627
 Se        -4.6122446545       -7.7766590675        1.5328214075
 Se        -6.6423257010        3.9855729165        0.4576521418
 Se        -4.0719849837        2.6208452413        3.9143226738
 Se        -1.6332986764        2.0117676443        7.9252110481
 Se        -6.7117629911        0.9829482965       -3.1654509271
 Se        -4.4070909467       -0.2111989873        0.3948816421
 Se        -2.0531249734       -1.1153351124        4.2594070571
 Se         0.4059980017       -1.5661437947        8.0651345393
 Se        -4.4160938734       -3.1300242192       -2.8046956609
 Se        -2.2374259419       -4.0915977137        0.9472108476
 Se         0.1530464460       -4.8127502833        4.4858194563
 Se        -2.4165592665       -7.4206916173       -2.0539401930
 Se        -0.0669268644       -7.8792127586        1.3095422939
 Se        -4.5522130766        7.5948581282       -0.0126459487
 Se        -1.8468112548        6.3633149857        3.5401200361
 Se         0.4037130115        5.8261559451        7.5859747515
 Se        -4.4661020793        4.5539828186       -3.3489581674
 Se        -2.0809881293        3.7152474958        0.3431796750
 Se         0.4982479248        2.6969863848        3.7287093577
 Se         2.7718034518        1.9958791109        7.6262769307
 Se        -4.6132538108        2.0747905304       -6.9049218475
 Se        -2.2789072496        0.8535246122       -3.1261060024
 Se         0.0145688813       -0.1632250121        0.3854048390
 Se         2.3129718398       -1.3188991401        3.9990493899
 Se         4.8631748059       -1.8842956105        7.7354753654
 Se        -2.0701848586       -1.9664257323       -6.4603940768
 Se        -0.0447018947       -3.1599577965       -2.8087910329
 Se         2.2323209793       -4.2314781265        0.7809450700
 Se         4.8362495420       -4.9531251205        4.0967251789
 Se        -0.7551485709       -6.2849059095       -5.8413978583
 Se         1.9250166162       -7.4791082929       -2.6076560699
 Se         4.2593565192       -8.3792663345        0.7363719538
 Se         0.0356280387        7.3686448890       -0.4913573976
 Se         2.3809449845        6.5252170707        3.1425276201
 Se         0.0437368610        4.4288396340       -3.5940233493
 Se         2.5164016631        3.6274365330       -0.0568909492
 Se         4.7727338900        2.4661635070        3.1253182994
 Se         0.0455167255        1.9300186086       -6.9705515899
 Se         2.2758554359        0.7648608574       -3.6570782555
 Se         4.3766787331       -0.2853641171       -0.0178416232
 Se         6.9677323585       -1.1294399142        3.5582175496
 Se         2.2370435255       -2.2682282225       -6.6837861416
 Se         4.3737681030       -3.1974960020       -3.2156818676
 Se         6.4331572002       -4.1116978575        0.4129284852
 Se         4.8516322202        7.5524273899       -0.7459540336
 Se         4.8775127489        4.5490031108       -4.0122829229
 Se         7.0856502435        3.5935011029       -0.6429046685
 Se         4.7817755851        1.5264641204       -7.5555513598
 Se         6.9186283952        0.6112229597       -3.7073745645
 Se         9.1069177052       -0.0626761534       -0.0923688756
  C         6.9966800100       -6.9498490856       -2.8612691323
  H         7.7649322095       -7.1224747738       -3.6684216540
  O         5.8441111676       -6.4672757543       -3.1400909961
  O         7.2887412264       -7.2742388032       -1.6937908135
  C         3.3950617641       -6.2673111585       -6.9491859045
  H         4.3444066225       -6.8936096686       -7.0753272229
  O         3.0188551422       -5.7909413024       -5.7821439355
  O         2.6177778983       -6.1689781360       -7.9240366827
  C         6.3106281205       -2.9078476172       -7.4910657460
  H         7.1299137504       -3.7048862282       -7.4466889051
  O         6.0085358583       -2.3182350223       -6.3475595690
  O         5.9394314462       -2.4743057997       -8.6125101721
  C         8.9774555638       -3.3708788912       -3.4296523635
  H         9.9250180562       -3.8774829974       -3.1826003730
  O         8.5683586548       -3.4149362867       -4.6046436755
  O         8.2717872138       -2.6967267986       -2.5201471662
  C         9.7980814668       -4.6252035790        2.1810007968
  H        10.6408655401       -5.3318691344        2.3887999993
  O         9.7472132093       -4.1805859828        0.9926557457
  O         9.0287726310       -4.5681957985        3.1870739865
  C        -2.8217338503       -8.8884453844        5.3598596846
  H        -2.4154187803       -9.9024293192        5.4343946394
  O        -1.9847816739       -7.9306850014        5.0423718412
  O        -4.0904614145       -8.7275074296        5.4044666860
  C         2.9969237549       -8.6916301789        5.2874254470
  H         2.6967725338       -9.0398269484        6.2934215078
  O         1.9994369047       -8.3579458176        4.5594719668
  O         4.2233480676       -8.6007943172        4.9158209454
  C         2.8793081954       -5.7053264755        8.2324337821
  H         2.3955873073       -6.3773024893        8.9303283437
  O         2.2190959234       -4.8089062294        7.6164175116
  O         4.1498190320       -5.9035700255        8.1536922915
  C        -2.5347150320       -5.9173469865        8.5220156618
  H        -2.0052498086       -6.7390725628        9.0096019785
  O        -1.9213706542       -5.2584411736        7.5983648008
  O        -3.6522420649       -5.5084997295        8.8928451701
  C        -6.8630695289        2.3027047719        7.3892170397
  H        -7.2086193538        3.3071349018        7.3885257928
  O        -5.6214048743        2.1591422153        7.5337719532
  O        -7.6696208863        1.3703239970        7.1999646461
  C        -4.1169940327        6.2828089384        7.2281988289
  H        -5.2418933127        6.2896177269        7.3832000201
  O        -3.5267759619        5.2290902951        6.7738828988
  O        -3.5911430914        7.4673641799        7.3180948805
  C        -6.2567466730        7.1462500590        4.0780899350
  H        -7.2111390447        7.1649409639        4.6689854642
  O        -5.8090809749        6.0479552683        3.6279391105
  O        -5.6129081474        8.2208051808        3.8488479407
  C        -9.2742292666        2.9617619609        4.4604744819
  H        -9.7855372140        3.8838940690        4.7760086716
  O        -8.0588833408        3.0119066856        4.1193172804
  O       -10.0812121296        1.9793758474        4.3922601550
  C        -9.6032859468       -3.5282237399        4.2551707132
  H       -10.5971720209       -3.6001750875        4.7566807035
  O        -9.3833505816       -2.7227947579        3.2942788094
  O        -8.6788211657       -4.3018089293        4.7630812828
  C        -5.4081381335       -6.0792401648       -6.1562012053
  H        -6.0546960796       -6.5859836395       -6.8890942905
  O        -5.3111229732       -6.5041445202       -4.9653404388
  O        -4.7985428351       -5.0927825850       -6.6853547530
  C        -7.4874978064       -7.2705833370       -1.8347924373
  H        -7.8388434959       -7.7173330376       -2.7530342297
  O        -6.3888029814       -6.5550299955       -1.8843763461
  O        -8.0717730941       -7.4409737976       -0.7458885938
  C        -9.2562875840       -3.4269945694       -2.1219788680
  H        -9.5270787848       -4.0663584857       -2.9594189931
  O        -8.1698753546       -2.7554367997       -2.2727109488
  O        -9.8242869468       -3.4940166161       -1.0092614244
  C        -6.7207137904       -1.5101382788       -7.0046074778
  H        -7.7450574417       -1.9674181007       -7.1698505571
  O        -6.3198755481       -1.2781306333       -5.7991359047
  O        -6.0634456168       -1.2635181085       -8.0155972609
  C        -1.9629159642        5.6954920604       -7.4853250946
  H        -1.7770888886        6.7764005651       -7.4923242406
  O        -2.4611997303        5.1867967102       -6.4087997556
  O        -1.7563597428        5.0405828080       -8.5284475118
  C        -1.7169015504        9.0075185665       -3.7839130752
  H        -1.3493405476        9.2660238074       -4.8465614694
  O        -1.7700217530        7.7196100810       -3.5246654399
  O        -1.9637390252        9.8896534671       -2.9409121698
  C         2.5062475997        8.6538958896       -4.1272904421
  H         2.7131102182        9.0638249498       -5.0476060874
  O         2.0944569499        7.4533535100       -4.0307005552
  O         2.6627651969        9.4112266766       -3.1553299585
  C         1.7411688237        5.3672439723       -8.1968750686
  H         1.4358383610        6.4416008070       -8.3632925476
  O         2.2781430784        5.0766784633       -7.0409199039
  O         1.5312069690        4.4834365502       -9.0176478534
  C         9.4768993011        2.6096295312        3.8999950451
  H         9.6131090334        3.4671477718        4.5843902861
  O         8.5280996787        2.7173795781        3.0492605102
  O        10.1886195793        1.5402100044        4.0331824153
  C         6.6326664312        7.0383176423        3.3281976534
  H         7.5082674956        7.1289998248        4.0070788575
  O         6.4945423019        6.1604962084        2.4465980727
  O         5.7955724452        7.9030519329        3.5813842359
  C         4.7447636443        5.8524886547        6.9354110259
  H         5.7085862008        5.7040540943        7.4370666698
  O         4.3286462567        4.9885775446        6.0815493420
  O         4.1458277320        6.9224567616        7.1372727973
  C         7.5603407599        1.7452803358        7.1878975141
  H         8.1158840311        2.6116602203        7.6593692779
  O         6.7459406822        2.0302575783        6.2244874254
  O         7.8435634181        0.5821970815        7.5895933282
     227
 i =        2, time =        2.000, E =        -7.5580688369
 Cd        -8.6169823259        0.4782681989        3.4768009438
 Cd        -5.8708305527       -0.2576707872        7.1136117817
 Cd        -8.4088529128       -2.1552097034        0.3836512426
 Cd        -6.8896632786       -3.2938915348        3.9621612945