     227
 i =        0, time =        0.000, E =       -13.5820969890
 Cd        -8.6216924880        0.4810107428        3.4775887729
 Cd        -5.8723589632       -0.2566559957        7.1151373767
 Cd        -8.4076147924       -2.1531404527        0.3867588804
 Cd        -6.8957642261       -3.2896665849        3.9600318291
 Cd        -3.6930098048       -3.6992689615        7.3819491709
 Cd        -6.4429261463       -6.2347087238        0.4622469067
 Cd        -4.3123952394       -6.8285875372        3.9039095072
 Cd        -6.1141073353        3.8626235599        2.9066844924
 Cd        -3.6048790416        2.8797284733        6.5917986711
 Cd        -6.7531255596        1.1841266196       -0.3182182747
 Cd        -4.0437606329        0.0729837467        3.0511954168
 Cd        -1.7753257667       -0.3121054857        6.8316599018
 Cd        -6.3661028473       -1.4630135273       -3.4383357626
 Cd        -4.3602814436       -3.1214810613       -0.1759283953
 Cd        -2.2424276819       -3.6242998489        3.6335413818
 Cd         0.1757294635       -3.9625201566        7.0364714760
 Cd        -4.2692200317       -5.9860442556       -3.0005266361
 Cd        -2.2482225396       -6.7972628816        0.6786391664
 Cd         0.0669003827       -7.3030327295        3.8545421700
 Cd        -4.0792754193        7.4105475565        2.4175118797
 Cd        -1.6116442377        6.4880648240        6.2478272306
 Cd        -4.3308002626        4.8127262164       -0.6762739309
 Cd        -1.8326132452        3.6694977750        3.1598212265
 Cd         0.4939817277        3.1637060931        6.7202662426
 Cd        -4.5980154021        1.9988297698       -4.0880170010
 Cd        -2.1651194586        1.0165564496       -0.4536921834
 Cd         0.1376109507       -0.0659106884        3.1336818174
 Cd         2.6419074521       -0.6636939286        6.8958319365
 Cd        -4.1515129292       -0.5348426091       -6.9620217917
 Cd        -2.2012490343       -1.8491984656       -3.4894107829
 Cd         0.0359311218       -2.8494155653       -0.0264680683
 Cd         2.4407298775       -3.8224684908        3.5289587884
 Cd         4.5907434619       -4.2169180472        6.5928471603
 Cd        -2.6321953796       -4.5685798778       -6.0773989300
 Cd        -0.3638438279       -6.1221236347       -3.0620735359
 Cd         1.9882729153       -6.8506852632       -0.0376753302
 Cd         4.3604701588       -7.5063202656        3.0981086138
 Cd        -2.4313710890        8.2839908015       -1.2010761441
 Cd         0.1210964618        6.7915494583        2.0748938605
 Cd         2.2602783261        6.3879934074        5.9824457591
 Cd        -2.2743307721        5.5403016700       -4.1096429978
 Cd         0.1552258413        4.6164378819       -0.9814446932
 Cd         2.6173372932        3.7540356816        2.4616712460
 Cd         4.3934694910        2.5024270436        5.6448470259
 Cd        -2.3839877703        3.0961459608       -7.5397423510
 Cd        -0.1308699873        1.7716472388       -4.3458913396
 Cd         2.1522040622        0.8595996928       -0.9600505658
 Cd         4.3027041934       -0.4425155449        2.5248589789
 Cd         6.4943132815       -0.6514444341        6.0110723312
 Cd         0.4032906214       -0.5920449882       -7.0625722312
 Cd         2.1504065746       -1.8410095193       -3.9631978812
 Cd         4.1282053355       -2.9764966895       -0.5499119195
 Cd         6.9189885741       -3.8001688729        2.8840486736
 Cd         1.0693858855       -4.7693596381       -6.7909688629
 Cd         3.6529341800       -5.7620820022       -3.6150795142
 Cd         5.7341856059       -6.5625995016       -0.3323817960
 Cd         2.4532379782        8.1225833618       -1.1556872380
 Cd         4.4025673150        7.2904811152        1.7928276254
 Cd         2.3800547108        5.2453457502       -4.8107637235
 Cd         4.8184663347        4.7191125514       -1.4277792117
 Cd         6.7589411702        3.8390778732        2.0295448973
 Cd         2.6210634084        2.7844913241       -7.7035228004
 Cd         4.8495943395        1.7843685348       -4.5225056138
 Cd         6.7261500983        1.0662237140       -0.9642295531
 Cd         8.8881450478        0.4141445330        2.4369093904
 Cd         4.3615782352       -0.9213178924       -7.7328888960
 Cd         6.7438649008       -1.9767569930       -4.2031112584
 Cd         8.5272445020       -2.6218905711       -0.2551455218
 Se        -9.0557725106        0.2424574140        0.9180313808
 Se        -6.3745872764       -0.6570220647        4.4225742627
 Se        -3.9358548519       -1.3506397678        8.2925868769
 Se        -6.5830028390       -3.7408669090        1.3890860046
 Se        -4.5802302415       -4.2716541219        4.8585926421
 Se        -4.6110671623       -7.7792240778        1.5343213278
 Se        -6.6407812351        3.9866809498        0.4586064126
 Se        -4.0705866514        2.6241591830        3.9150270775
 Se        -1.6315747320        2.0143859544        7.9219454430
 Se        -6.7106235468        0.9827493806       -3.1628202938
 Se        -4.4077684895       -0.2106461950        0.3970531668
 Se        -2.0534879979       -1.1190641497        4.2604482105
 Se         0.4069246601       -1.5676855049        8.0617057342
 Se        -4.4126107232       -3.1307459794       -2.8028288282
 Se        -2.2371864822       -4.0884616040        0.9473336128
 Se         0.1541797359       -4.8148952714        4.4843326207
 Se        -2.4147106009       -7.4199706225       -2.0529393442
 Se        -0.0662571417       -7.8800811154        1.3078284855
 Se        -4.5519687636        7.5920037884       -0.0122560791
 Se        -1.8482840651        6.3647212661        3.5390459072
 Se         0.4006735392        5.8241498358        7.5878867146
 Se        -4.4655945585        4.5529209660       -3.3484418515
 Se        -2.0798083538        3.7153034916        0.3451575142
 Se         0.4973892782        2.6967113851        3.7286137790
 Se         2.7724753484        1.9958260876        7.6298945277
 Se        -4.6126224962        2.0736182894       -6.9031574659
 Se        -2.2770211290        0.8531533747       -3.1284312065
 Se         0.0138865169       -0.1636477002        0.3858468104
 Se         2.3115473387       -1.3198431962        4.0017354986
 Se         4.8624545925       -1.8855864388        7.7371297607
 Se        -2.0700877949       -1.9675257511       -6.4603372509
 Se        -0.0447057629       -3.1582708631       -2.8090856920
 Se         2.2343306950       -4.2299664240        0.7817840723
 Se         4.8342987615       -4.9516929708        4.0974643468
 Se        -0.7556003326       -6.2829108386       -5.8406699955
 Se         1.9243057511       -7.4784768035       -2.6074198353
 Se         4.2543989663       -8.3809591814        0.7363809319
 Se         0.0386925703        7.3677075300       -0.4939635450
 Se         2.3791568525        6.5289221229        3.1400383851
 Se         0.0465974103        4.4270318221       -3.5936563407
 Se         2.5167269427        3.6273521599       -0.0581806204
 Se         4.7705604635        2.4670139639        3.1233546104
 Se         0.0435933033        1.9323944164       -6.9695738842
 Se         2.2733127965        0.7623703678       -3.6584263160
 Se         4.3816175435       -0.2841549253       -0.0177063702
 Se         6.9670500347       -1.1290204494        3.5565582379
 Se         2.2410869402       -2.2702007814       -6.6798205275
 Se         4.3723294721       -3.1971869108       -3.2130677403
 Se         6.4331938555       -4.1098532443        0.4136420186
 Se         4.8503033307        7.5509093293       -0.7463548497
 Se         4.8776288797        4.5477652435       -4.0091414448
 Se         7.0830986217        3.5950723552       -0.6434567968
 Se         4.7810064642        1.5273410534       -7.5566303287
 Se         6.9188050062        0.6130038217       -3.7081238627
 Se         9.1066871843       -0.0609359671       -0.0919647969
  C         6.9955771113       -6.9586634775       -2.8583426301
  H         7.7780160969       -7.1271873265       -3.6573399650
  O         5.8389952916       -6.4652991204       -3.1445809228
  O         7.2920676004       -7.2683568805       -1.6893132711
  C         3.3939431960       -6.2668607509       -6.9513074648
  H         4.3245440932       -6.8689211647       -7.0591687882
  O         3.0202466073       -5.7860511295       -5.7843136273
  O         2.6220129789       -6.1746538788       -7.9242101403
  C         6.3116555909       -2.9071154185       -7.4921130606
  H         7.0978863851       -3.7212906458       -7.4285512081
  O         6.0096715894       -2.3219711192       -6.3505932827
  O         5.9403243477       -2.4750431756       -8.6116316973
  C         8.9837561036       -3.3697375837       -3.4349055328
  H         9.9249943929       -3.8864043165       -3.1840078659
  O         8.5659407989       -3.4209184445       -4.6048832464
  O         8.2714489672       -2.6971151254       -2.5207012617
  C         9.7902109758       -4.6282247391        2.1768529346
  H        10.6284324694       -5.3337138149        2.3552924638
  O         9.7484501532       -4.1824896055        0.9942458601
  O         9.0219926648       -4.5705851174        3.1873629795
  C        -2.8252708508       -8.8894178348        5.3653894160
  H        -2.3915771747       -9.8892286280        5.4446685031
  O        -1.9808601030       -7.9304545651        5.0436955975
  O        -4.0908415257       -8.7280019527        5.4030844137
  C         3.0047406823       -8.6887063298        5.2919739424
  H         2.6853413808       -9.0312323512        6.2714246943
  O         1.9985977812       -8.3553887881        4.5599054594
  O         4.2197147413       -8.6069092298        4.9235206312
  C         2.8732291572       -5.7090624943        8.2322507888
  H         2.4095730423       -6.3582442170        8.9295273658
  O         2.2236878889       -4.8031284854        7.6183804854
  O         4.1525405945       -5.8988692439        8.1468427445
  C        -2.5324052264       -5.9090323801        8.5168983878
  H        -2.0058427467       -6.7599986745        9.0204193621
  O        -1.9189018681       -5.2527647032        7.5983339134
  O        -3.6521974131       -5.4981014961        8.8936623702
  C        -6.8661340661        2.3082426882        7.3884767521
  H        -7.2433530482        3.2983326111        7.3747512577
  O        -5.6189307919        2.1553364867        7.5292857639
  O        -7.6694328727        1.3672322100        7.2032576312
  C        -4.1128935570        6.2776012356        7.2258109093
  H        -5.2184092536        6.2949225170        7.4003980339
  O        -3.5215502414        5.2331222329        6.7794929280
  O        -3.5956064510        7.4679880815        7.3184340370
  C        -6.2584500423        7.1467273309        4.0778865765
  H        -7.2018864753        7.1620259062        4.6862261037
  O        -5.8042352338        6.0508881806        3.6277903665
  O        -5.6141473350        8.2227071687        3.8530055117
  C        -9.2670155991        2.9624473135        4.4549609073
  H        -9.7760873251        3.8307467380        4.7753730710
  O        -8.0580447847        3.0137717908        4.1153681461
  O       -10.0869615960        1.9755230626        4.3964141791
  C        -9.5997958208       -3.5202239981        4.2555074891
  H       -10.6284324694       -3.6062117458        4.7363993397
  O        -9.3836198173       -2.7271085544        3.2939504316
  O        -8.6749593009       -4.3055307223        4.7674147240
  C        -5.4063829718       -6.0836320759       -6.1576393485
  H        -6.0390997038       -6.5934387315       -6.8768176703
  O        -5.3157147411       -6.5042627408       -4.9638375967
  O        -4.7997118332       -5.0931497246       -6.6842330004
  C        -7.4812021438       -7.2683192216       -1.8337008205
  H        -7.8430239833       -7.7214409635       -2.7403108931
  O        -6.3847231004       -6.5596142310       -1.8855223803
  O        -8.0870004405       -7.4369608581       -0.7449951352
  C        -9.2637717352       -3.4248031045       -2.1287629167
  H        -9.5435102925       -4.0726156799       -2.9624854104
  O        -8.1685743898       -2.7562864935       -2.2769679175
  O        -9.8293124780       -3.4993302663       -1.0042472880
  C        -6.7198117275       -1.5155721631       -7.0057360974
  H        -7.7266400310       -1.9701098143       -7.1795729881
  O        -6.3208037730       -1.2812141421       -5.7891801227
  O        -6.0546670581       -1.2647410752       -8.0219575549
  C        -1.9610306020        5.6962737072       -7.4797868569
  H        -1.8068881661        6.7616764611       -7.4798700689
  O        -2.4613788677        5.1953402046       -6.4147373301
  O        -1.7592038190        5.0404242691       -8.5376948407
  C        -1.7153677193        9.0065729983       -3.7807068554
  H        -1.3518565997        9.2891789052       -4.8285272378
  O        -1.7735635219        7.7204009534       -3.5311974415
  O        -1.9589811591        9.8892286280       -2.9296575010
  C         2.5176986766        8.6527359013       -4.1276241396
  H         2.7356319561        9.0838176512       -5.0545617483
  O         2.0941304229        7.4607563111       -4.0382054964
  O         2.6632020791        9.4136986823       -3.1567247192
  C         1.7405814703        5.3615037054       -8.2026998584
  H         1.4592813282        6.4433815072       -8.3446733349
  O         2.2712544771        5.0744229803       -7.0359036782
  O         1.5374971892        4.4786315137       -9.0204193621
  C         9.4791869119        2.6134878200        3.9079418032
  H         9.6264681644        3.4611325178        4.5867541287
  O         8.5294682966        2.7206869475        3.0468687327
  O        10.1884170796        1.5361363159        4.0354546634
  C         6.6320899766        7.0427804887        3.3240585285
  H         7.5183451153        7.1103565644        4.0025867163
  O         6.4921259472        6.1579139584        2.4473334656
  O         5.8014508194        7.8970951585        3.5804466065
  C         4.7468288793        5.8510846562        6.9391041765
  H         5.6837062732        5.7110173508        7.4566454645
  O         4.3315486404        4.9881730889        6.0840680113
  O         4.1390624477        6.9214380767        7.1338855679
  C         7.5642974957        1.7429307679        7.1823006621
  H         8.1116275708        2.6102062210        7.6466333920
  O         6.7423080014        2.0330978891        6.2208765696
  O         7.8434776238        0.5800715711        7.5931108165
     227
 i =        1, time =        1.000, E =       -13.6160955832
 Cd        -8.6193121910        0.4795932715        3.4772923687
 Cd        -5.8718212509       -0.2570917769        7.1142885118
 Cd        -8.4082650503       -2.1543103234        0.3851105975
 Cd        -6.8926346489       -3.2916598293        3.9611135840
 Cd        -3.6901999907       -3.7005712610        7.3822742257
 Cd        -6.4420734112       -6.2357337174        0.4642826434
 Cd        -4.3123109256       -6.8295739299        3.9054478082
 Cd        -6.1165037417        3.8609226509        2.9058416008
 Cd        -3.6068166637        2.8813121913        6.5902778054
 Cd        -6.7534361114        1.1872886866       -0.3192458262
 Cd        -4.0445495589        0.0755183645        3.0501384177
 Cd        -1.7741831145       -0.3127595114        6.8335431280
 Cd        -6.3661821603       -1.4628207219       -3.4401851588
 Cd        -4.3615331167       -3.1216810152       -0.1744962668
 Cd        -2.2425901323       -3.6217778529        3.6335959582
 Cd         0.1785288421       -3.9616836261        7.0369596394
 Cd        -4.2695458618       -5.9880067395       -2.9988797930
 Cd        -2.2489573100       -6.7965211441        0.6790555986
 Cd         0.0676944878       -7.3031920941        3.8543218471
 Cd        -4.0801252162        7.4118856947        2.4185562722
 Cd        -1.6110022190        6.4881257573        6.2508123265
 Cd        -4.3325508313        4.8128886254       -0.6769386061
 Cd        -1.8304097374        3.6697027368        3.1588456477
 Cd         0.4898164977        3.1633773394        6.7204411680
 Cd        -4.5993968667        2.0001661944       -4.0892008295
 Cd        -2.1629940036        1.0182644531       -0.4517469369
 Cd         0.1384109108       -0.0680612555        3.1343976583
 Cd         2.6424287064       -0.6635108781        6.8958043072
 Cd        -4.1541480551       -0.5351098482       -6.9611269293
 Cd        -2.2032290397       -1.8489972955       -3.4901484545
 Cd         0.0357838298       -2.8475321231       -0.0251143980
 Cd         2.4397687104       -3.8217916756        3.5304001362
 Cd         4.5938285670       -4.2152568296        6.5947292124
 Cd        -2.6318564551       -4.5698741401       -6.0785175192
 Cd        -0.3609033962       -6.1209218597       -3.0631822644
 Cd         1.9864949551       -6.8523261626       -0.0374094829
 Cd         4.3579002780       -7.5047024185        3.0972939808
 Cd        -2.4318593702        8.2868539733       -1.2005000654
 Cd         0.1211427104        6.7912489628        2.0745096927
 Cd         2.2582092896        6.3880109571        5.9823271159
 Cd        -2.2739057532        5.5406917905       -4.1122242197
 Cd         0.1544427865        4.6148991107       -0.9822334190
 Cd         2.6164509954        3.7535336257        2.4612956534
 Cd         4.3939958846        2.5015763701        5.6448672651
 Cd        -2.3862909684        3.0936571721       -7.5399813844
 Cd        -0.1312451176        1.7709737505       -4.3473779151
 Cd         2.1531456382        0.8601358282       -0.9632072959
 Cd         4.3036293304       -0.4402057400        2.5250356314
 Cd         6.4920427022       -0.6516596242        6.0107075082
 Cd         0.4040229473       -0.5928291295       -7.0622405786
 Cd         2.1512645348       -1.8412263243       -3.9633343947
 Cd         4.1300462001       -2.9779627576       -0.5482564026
 Cd         6.9198216920       -3.7968748490        2.8857804993
 Cd         1.0696523023       -4.7690005585       -6.7908006661
 Cd         3.6506987135       -5.7625016011       -3.6176298184
 Cd         5.7328119060       -6.5638628179       -0.3327250169
 Cd         2.4548682929        8.1224477939       -1.1567218435
 Cd         4.4054982797        7.2898800713        1.7948019304
 Cd         2.3804070574        5.2452162355       -4.8085650748
 Cd         4.8188546232        4.7185612975       -1.4282207995
 Cd         6.7582921626        3.8402472634        2.0311249739
 Cd         2.6215151862        2.7830477691       -7.7034107466
 Cd         4.8490329013        1.7848342685       -4.5232985203
 Cd         6.7276589717        1.0647819368       -0.9631300613
 Cd         8.8867746798        0.4155760924        2.4349144582
 Cd         4.3617648923       -0.9229945333       -7.7309880312
 Cd         6.7427264425       -1.9756710113       -4.2012073018
 Cd         8.5292066067       -2.6208175867       -0.2527397200
 Se        -9.0551670469        0.2433109473        0.9181082136
 Se        -6.3728615328       -0.6564240488        4.4184282760
 Se        -3.9343394214       -1.3488402773        8.2971939702
 Se        -6.5831206163       -3.7426603628        1.3878980277
 Se        -4.5790440126       -4.2751621938        4.8600036284
 Se        -4.6123397382       -7.7771048310        1.5327116681
 Se        -6.6426794838        3.9855515742        0.4571787217
 Se        -4.0720360500        2.6208097836        3.9145513374
 Se        -1.6330782204        2.0120469293        7.9257054316
 Se        -6.7124411275        0.9833124351       -3.1652445301
 Se        -4.4072113782       -0.2112850584        0.3948338428
 Se        -2.0529540740       -1.1151727907        4.2595392049
 Se         0.4059546766       -1.5661584482        8.0654353608
 Se        -4.4161807760       -3.1303154132       -2.8049198204
 Se        -2.2372087022       -4.0916127153        0.9472531331
 Se         0.1529076052       -4.8126547868        4.4859671664
 Se        -2.4165173842       -7.4211536871       -2.0538562623
 Se        -0.0666032738       -7.8797107888        1.3096381382
 Se        -4.5527482449        7.5949631032       -0.0130636674
 Se        -1.8472371393        6.3634479757        3.5405309723
 Se         0.4037909396        5.8260700528        7.5866728768
 Se        -4.4665599224        4.5541287957       -3.3489795097
 Se        -2.0809202381        3.7151713455        0.3431571367
 Se         0.4983805098        2.6968005042        3.7289657233
 Se         2.7718324946        1.9959223520        7.6265735301
 Se        -4.6137299127        2.0747967281       -6.9049975693
 Se        -2.2789932167        0.8534493195       -3.1261744251
 Se         0.0147261259       -0.1632826461        0.3854842585
 Se         2.3130213605       -1.3185417620        3.9993740555
 Se         4.8633368000       -1.8842663257        7.7358304546
 Se        -2.0699242077       -1.9664878878       -6.4604679167
 Se        -0.0444838936       -3.1601502519       -2.8087617548
 Se         2.2322158389       -4.2315495124        0.7809874195
 Se         4.8363008825       -4.9533845786        4.0967674203
 Se        -0.7551726599       -6.2854819166       -5.8414188613
 Se         1.9250334043       -7.4794171901       -2.6078540593
 Se         4.2592818986       -8.3798350882        0.7361225869
 Se         0.0354877828        7.3687912523       -0.4914592733
 Se         2.3811775176        6.5252015068        3.1430352827
 Se         0.0438993528        4.4288596602       -3.5942171318
 Se         2.5164095913        3.6274129657       -0.0574644146
 Se         4.7730112380        2.4659202981        3.1252238388
 Se         0.0454761308        1.9303605702       -6.9709300402
 Se         2.2760102347        0.7650437911       -3.6570850164
 Se         4.3768302562       -0.2853557723       -0.0181884480
 Se         6.9677805121       -1.1295538235        3.5579741096
 Se         2.2373468329       -2.2686043546       -6.6839276238
 Se         4.3739414521       -3.1975093869       -3.2157851939
 Se         6.4331971959       -4.1117975886        0.4125618017
 Se         4.8522848438        7.5524507514       -0.7461435863
 Se         4.8775924045        4.5490799469       -4.0127104316
 Se         7.0860052315        3.5938622500       -0.6428180058
 Se         4.7823968401        1.5268154026       -7.5555645582
 Se         6.9191373890        0.6111454095       -3.7073227190
 Se         9.1072427349       -0.0626016268       -0.0926366552
  C         6.9966615213       -6.9497480684       -2.8612738131
  H         7.7649322095       -7.1224747738       -3.6684216540
  O         5.8450123779       -6.4675504800       -3.1398303949
  O         7.2906786024       -7.2750630536       -1.6955086638
  C         3.3951067392       -6.2672558606       -6.9491312343
  H         4.3444066225       -6.8936096686       -7.0753272229
  O         3.0188260822       -5.7911032595       -5.7834941023
  O         2.6182390411       -6.1693304681       -7.9243491658
  C         6.3106261656       -2.9078815099       -7.4909522786
  H         7.1299137504       -3.7048862282       -7.4466889051
  O         6.0081819390       -2.3185251923       -6.3487335188
  O         5.9398463418       -2.4747507527       -8.6127190615
  C         8.9773744898       -3.3708993205       -3.4296126377
  H         9.9250180562       -3.8774829974       -3.1826003730
  O         8.5689674514       -3.4154498503       -4.6047276377
  O         8.2720134824       -2.6970549043       -2.5210848587
  C         9.7980048189       -4.6251735012        2.1809703924
  H        10.6408655401       -5.3318691344        2.3887999993
  O         9.7476140559       -4.1811794592        0.9932301881
  O         9.0302518258       -4.5687085105        3.1872769399
  C        -2.8217032865       -8.8883651749        5.3598602116
  H        -2.4154187803       -9.9024293192        5.4343946394
  O        -1.9852189181       -7.9307303767        5.0425793779
  O        -4.0903676773       -8.7278206311        5.4047650101
  C         2.9969025915       -8.6915455771        5.2874385504
  H         2.6967725338       -9.0398269484        6.2934215078
  O         2.0005204973       -8.3584145212        4.5598387136
  O         4.2230623084       -8.6026830621        4.9190351354
  C         2.8792655124       -5.7053320243        8.2323683211
  H         2.3955873073       -6.3773024893        8.9303283437
  O         2.2202738048       -4.8094357470        7.6166875546
  O         4.1495772433       -5.9042921074        8.1542833840
  C        -2.5346952982       -5.9173566298        8.5219181127
  H        -2.0052498086       -6.7390725628        9.0096019785
  O        -1.9209941240       -5.2590595774        7.5984745100
  O        -3.6522088885       -5.5091624581        8.8933474975
  C        -6.8630528486        2.3027178804        7.3891057781
  H        -7.2086193538        3.3071349018        7.3885257928
  O        -5.6222448718        2.1592335862        7.5341824361
  O        -7.6699393766        1.3706670557        7.1999541119
  C        -4.1170204258        6.2827588672        7.2281216035
  H        -5.2418933127        6.2896177269        7.3832000201
  O        -3.5274875991        5.2294281641        6.7740905096
  O        -3.5914300126        7.4674768505        7.3181844841
  C        -6.2567086358        7.1461813212        4.0781185332
  H        -7.2111390447        7.1649409639        4.6689854642
  O        -5.8090633257        6.0488477225        3.6284669255
  O        -5.6140014951        8.2213373285        3.8499505650
  C        -9.2741425729        2.9617131417        4.4605009383
  H        -9.7855372140        3.8838940690        4.7760086716
  O        -8.0592236664        3.0117827133        4.1196060852
  O       -10.0820369113        1.9802596393        4.3928407799
  C        -9.6032266199       -3.5281901941        4.2551354529
  H       -10.5971720209       -3.6001750875        4.7566807035
  O        -9.3833042697       -2.7226961695        3.2942352849
  O        -8.6807648488       -4.3028993490        4.7639678793
  C        -5.4081393237       -6.0791825064       -6.1561396340
  H        -6.0546960796       -6.5859836395       -6.8890942905
  O        -5.3116864871       -6.5043397879       -4.9665731468
  O        -4.7996319461       -5.0930107431       -6.6855852215
  C        -7.4874605229       -7.2704907203       -1.8348081170
  H        -7.8388434959       -7.7173330376       -2.7530342297
  O        -6.3891625406       -6.5551506543       -1.8849368014
  O        -8.0722665481       -7.4413073965       -0.7462649701
  C        -9.2562028062       -3.4270265813       -2.1219516742
  H        -9.5270787848       -4.0663584857       -2.9594189931
  O        -8.1700550411       -2.7556165491       -2.2725216479
  O        -9.8245796766       -3.4943719545       -1.0096337853
  C        -6.7206796441       -1.5101934402       -7.0045464762
  H        -7.7450574417       -1.9674181007       -7.1698505571
  O        -6.3198809142       -1.2781732419       -5.7999123915
  O        -6.0644643354       -1.2639765764       -8.0161397424
  C        -1.9628531330        5.6954776520       -7.4852659275
  H        -1.7770888886        6.7764005651       -7.4923242406
  O        -2.4612181588        5.1872747767       -6.4094509585
  O        -1.7559291289        5.0418277044       -8.5290197228
  C        -1.7168396747        9.0074497292       -3.7839197778
  H        -1.3493405476        9.2660238074       -4.8465614694
  O        -1.7696750742        7.7206593412       -3.5246613286
  O        -1.9636090227        9.8899681425       -2.9412940147
  C         2.5061935979        8.6538361730       -4.1272916370
  H         2.7131102182        9.0638249498       -5.0476060874
  O         2.0943205226        7.4541393771       -4.0303627716
  O         2.6627617593        9.4115687794       -3.1558736213
  C         1.7410958314        5.3672359230       -8.1968178393
  H         1.4358383610        6.4416008070       -8.3632925476
  O         2.2779058293        5.0770512237       -7.0427081120
  O         1.5309673812        4.4838240049       -9.0178929070
  C         9.4767944249        2.6096173443        3.9000237940
  H         9.6131090334        3.4671477718        4.5843902861
  O         8.5288031226        2.7174237009        3.0499180595
  O        10.1890685596        1.5406350629        4.0337802554
  C         6.6326275596        7.0382381289        3.3282314355
  H         7.5082674956        7.1289998248        4.0070788575
  O         6.4947165601        6.1610536530        2.4468992087
  O         5.7960470990        7.9032112513        3.5820451873
  C         4.7447861053        5.8524533714        6.9353333287
  H         5.7085862008        5.7040540943        7.4370666698
  O         4.3288465630        4.9886443701        6.0815185710
  O         4.1471194145        6.9227990557        7.1379868309
  C         7.5603221419        1.7452841896        7.1878088431
  H         8.1158840311        2.6116602203        7.6593692779
  O         6.7463351044        2.0301762340        6.2245447787
  O         7.8438537971        0.5824831545        7.5898635591
     227
 i =        2, time =        2.000, E =       -13.6998755083
 Cd        -8.6168834446        0.4781243380        3.4772584693
 Cd        -5.8719002062       -0.2572417123        7.1132193664
 Cd        -8.4090610234       -2.1558671196        0.3831853631
 Cd        -6.8893212607       -3.2933488005        3.9622135653