     227
 i =        0, time =        0.000, E =        -7.9226373784
 Cd        -8.6216924880        0.4810107428        3.4775887729
 Cd        -5.8723589632       -0.2566559957        7.1151373767
 Cd        -8.4076147924       -2.1531404527        0.3867588804
 Cd        -6.8957642261       -3.2896665849        3.9600318291
 Cd        -3.6930098048       -3.6992689615        7.3819491709
 Cd        -6.4429261463       -6.2347087238        0.4622469067
 Cd        -4.3123952394       -6.8285875372        3.9039095072
 Cd        -6.1141073353        3.8626235599        2.9066844924
 Cd        -3.6048790416        2.8797284733        6.5917986711
 Cd        -6.7531255596        1.1841266196       -0.3182182747
 Cd        -4.0437606329        0.0729837467        3.0511954168
 Cd        -1.7753257667       -0.3121054857        6.8316599018
 Cd        -6.3661028473       -1.4630135273       -3.4383357626
 Cd        -4.3602814436       -3.1214810613       -0.1759283953
 Cd        -2.2424276819       -3.6242998489        3.6335413818
 Cd         0.1757294635       -3.9625201566        7.0364714760
 Cd        -4.2692200317       -5.9860442556       -3.0005266361
 Cd        -2.2482225396       -6.7972628816        0.6786391664
 Cd         0.0669003827       -7.3030327295        3.8545421700
 Cd        -4.0792754193        7.4105475565        2.4175118797
 Cd        -1.6116442377        6.4880648240        6.2478272306
 Cd        -4.3308002626        4.8127262164       -0.6762739309
 Cd        -1.8326132452        3.6694977750        3.1598212265
 Cd         0.4939817277        3.1637060931        6.7202662426
 Cd        -4.5980154021        1.9988297698       -4.0880170010
 Cd        -2.1651194586        1.0165564496       -0.4536921834
 Cd         0.1376109507       -0.0659106884        3.1336818174
 Cd         2.6419074521       -0.6636939286        6.8958319365
 Cd        -4.1515129292       -0.5348426091       -6.9620217917
 Cd        -2.2012490343       -1.8491984656       -3.4894107829
 Cd         0.0359311218       -2.8494155653       -0.0264680683
 Cd         2.4407298775       -3.8224684908        3.5289587884
 Cd         4.5907434619       -4.2169180472        6.5928471603
 Cd        -2.6321953796       -4.5685798778       -6.0773989300
 Cd        -0.3638438279       -6.1221236347       -3.0620735359
 Cd         1.9882729153       -6.8506852632       -0.0376753302
 Cd         4.3604701588       -7.5063202656        3.0981086138
 Cd        -2.4313710890        8.2839908015       -1.2010761441
 Cd         0.1210964618        6.7915494583        2.0748938605
 Cd         2.2602783261        6.3879934074        5.9824457591
 Cd        -2.2743307721        5.5403016700       -4.1096429978
 Cd         0.1552258413        4.6164378819       -0.9814446932
 Cd         2.6173372932        3.7540356816        2.4616712460
 Cd         4.3934694910        2.5024270436        5.6448470259
 Cd        -2.3839877703        3.0961459608       -7.5397423510
 Cd        -0.1308699873        1.7716472388       -4.3458913396
 Cd         2.1522040622        0.8595996928       -0.9600505658
 Cd         4.3027041934       -0.4425155449        2.5248589789
 Cd         6.4943132815       -0.6514444341        6.0110723312
 Cd         0.4032906214       -0.5920449882       -7.0625722312
 Cd         2.1504065746       -1.8410095193       -3.9631978812
 Cd         4.1282053355       -2.9764966895       -0.5499119195
 Cd         6.9189885741       -3.8001688729        2.8840486736
 Cd         1.0693858855       -4.7693596381       -6.7909688629
 Cd         3.6529341800       -5.7620820022       -3.6150795142
 Cd         5.7341856059       -6.5625995016       -0.3323817960
 Cd         2.4532379782        8.1225833618       -1.1556872380
 Cd         4.4025673150        7.2904811152        1.7928276254
 Cd         2.3800547108        5.2453457502       -4.8107637235
 Cd         4.8184663347        4.7191125514       -1.4277792117
 Cd         6.7589411702        3.8390778732        2.0295448973
 Cd         2.6210634084        2.7844913241       -7.7035228004
 Cd         4.8495943395        1.7843685348       -4.5225056138
 Cd         6.7261500983        1.0662237140       -0.9642295531
 Cd         8.8881450478        0.4141445330        2.4369093904
 Cd         4.3615782352       -0.9213178924       -7.7328888960
 Cd         6.7438649008       -1.9767569930       -4.2031112584
 Cd         8.5272445020       -2.6218905711       -0.2551455218
 Se        -9.0557725106        0.2424574140        0.9180313808
 Se        -6.3745872764       -0.6570220647        4.4225742627
 Se        -3.9358548519       -1.3506397678        8.2925868769
 Se        -6.5830028390       -3.7408669090        1.3890860046
 Se        -4.5802302415       -4.2716541219        4.8585926421
 Se        -4.6110671623       -7.7792240778        1.5343213278
 Se        -6.6407812351        3.9866809498        0.4586064126
 Se        -4.0705866514        2.6241591830        3.9150270775
 Se        -1.6315747320        2.0143859544        7.9219454430
 Se        -6.7106235468        0.9827493806       -3.1628202938
 Se        -4.4077684895       -0.2106461950        0.3970531668
 Se        -2.0534879979       -1.1190641497        4.2604482105
 Se         0.4069246601       -1.5676855049        8.0617057342
 Se        -4.4126107232       -3.1307459794       -2.8028288282
 Se        -2.2371864822       -4.0884616040        0.9473336128
 Se         0.1541797359       -4.8148952714        4.4843326207
 Se        -2.4147106009       -7.4199706225       -2.0529393442
 Se        -0.0662571417       -7.8800811154        1.3078284855
 Se        -4.5519687636        7.5920037884       -0.0122560791
 Se        -1.8482840651        6.3647212661        3.5390459072
 Se         0.4006735392        5.8241498358        7.5878867146
 Se        -4.4655945585        4.5529209660       -3.3484418515
 Se        -2.0798083538        3.7153034916        0.3451575142
 Se         0.4973892782        2.6967113851        3.7286137790
 Se         2.7724753484        1.9958260876        7.6298945277
 Se        -4.6126224962        2.0736182894       -6.9031574659
 Se        -2.2770211290        0.8531533747       -3.1284312065
 Se         0.0138865169       -0.1636477002        0.3858468104
 Se         2.3115473387       -1.3198431962        4.0017354986
 Se         4.8624545925       -1.8855864388        7.7371297607
 Se        -2.0700877949       -1.9675257511       -6.4603372509
 Se        -0.0447057629       -3.1582708631       -2.8090856920
 Se         2.2343306950       -4.2299664240        0.7817840723
 Se         4.8342987615       -4.9516929708        4.0974643468
 Se        -0.7556003326       -6.2829108386       -5.8406699955
 Se         1.9243057511       -7.4784768035       -2.6074198353
 Se         4.2543989663       -8.3809591814        0.7363809319
 Se         0.0386925703        7.3677075300       -0.4939635450
 Se         2.3791568525        6.5289221229        3.1400383851
 Se         0.0465974103        4.4270318221       -3.5936563407
 Se         2.5167269427        3.6273521599       -0.0581806204
 Se         4.7705604635        2.4670139639        3.1233546104
 Se         0.0435933033        1.9323944164       -6.9695738842
 Se         2.2733127965        0.7623703678       -3.6584263160
 Se         4.3816175435       -0.2841549253       -0.0177063702
 Se         6.9670500347       -1.1290204494        3.5565582379
 Se         2.2410869402       -2.2702007814       -6.6798205275
 Se         4.3723294721       -3.1971869108       -3.2130677403
 Se         6.4331938555       -4.1098532443        0.4136420186
 Se         4.8503033307        7.5509093293       -0.7463548497
 Se         4.8776288797        4.5477652435       -4.0091414448
 Se         7.0830986217        3.5950723552       -0.6434567968
 Se         4.7810064642        1.5273410534       -7.5566303287
 Se         6.9188050062        0.6130038217       -3.7081238627
 Se         9.1066871843       -0.0609359671       -0.0919647969
  C         6.9955771113       -6.9586634775       -2.8583426301
  H         7.7780160969       -7.1271873265       -3.6573399650
  O         5.8389952916       -6.4652991204       -3.1445809228
  O         7.2920676004       -7.2683568805       -1.6893132711
  C         3.3939431960       -6.2668607509       -6.9513074648
  H         4.3245440932       -6.8689211647       -7.0591687882
  O         3.0202466073       -5.7860511295       -5.7843136273
  O         2.6220129789       -6.1746538788       -7.9242101403
  C         6.3116555909       -2.9071154185       -7.4921130606
  H         7.0978863851       -3.7212906458       -7.4285512081
  O         6.0096715894       -2.3219711192       -6.3505932827
  O         5.9403243477       -2.4750431756       -8.6116316973
  C         8.9837561036       -3.3697375837       -3.4349055328
  H         9.9249943929       -3.8864043165       -3.1840078659
  O         8.5659407989       -3.4209184445       -4.6048832464
  O         8.2714489672       -2.6971151254       -2.5207012617
  C         9.7902109758       -4.6282247391        2.1768529346
  H        10.6284324694       -5.3337138149        2.3552924638
  O         9.7484501532       -4.1824896055        0.9942458601
  O         9.0219926648       -4.5705851174        3.1873629795
  C        -2.8252708508       -8.8894178348        5.3653894160
  H        -2.3915771747       -9.8892286280        5.4446685031
  O        -1.9808601030       -7.9304545651        5.0436955975
  O        -4.0908415257       -8.7280019527        5.4030844137
  C         3.0047406823       -8.6887063298        5.2919739424
  H         2.6853413808       -9.0312323512        6.2714246943
  O         1.9985977812       -8.3553887881        4.5599054594
  O         4.2197147413       -8.6069092298        4.9235206312
  C         2.8732291572       -5.7090624943        8.2322507888
  H         2.4095730423       -6.3582442170        8.9295273658
  O         2.2236878889       -4.8031284854        7.6183804854
  O         4.1525405945       -5.8988692439        8.1468427445
  C        -2.5324052264       -5.9090323801        8.5168983878
  H        -2.0058427467       -6.7599986745        9.0204193621
  O        -1.9189018681       -5.2527647032        7.5983339134
  O        -3.6521974131       -5.4981014961        8.8936623702
  C        -6.8661340661        2.3082426882        7.3884767521
  H        -7.2433530482        3.2983326111        7.3747512577
  O        -5.6189307919        2.1553364867        7.5292857639
  O        -7.6694328727        1.3672322100        7.2032576312
  C        -4.1128935570        6.2776012356        7.2258109093
  H        -5.2184092536        6.2949225170        7.4003980339
  O        -3.5215502414        5.2331222329        6.7794929280
  O        -3.5956064510        7.4679880815        7.3184340370
  C        -6.2584500423        7.1467273309        4.0778865765
  H        -7.2018864753        7.1620259062        4.6862261037
  O        -5.8042352338        6.0508881806        3.6277903665
  O        -5.6141473350        8.2227071687        3.8530055117
  C        -9.2670155991        2.9624473135        4.4549609073
  H        -9.7760873251        3.8307467380        4.7753730710
  O        -8.0580447847        3.0137717908        4.1153681461
  O       -10.0869615960        1.9755230626        4.3964141791
  C        -9.5997958208       -3.5202239981        4.2555074891
  H       -10.6284324694       -3.6062117458        4.7363993397
  O        -9.3836198173       -2.7271085544        3.2939504316
  O        -8.6749593009       -4.3055307223        4.7674147240
  C        -5.4063829718       -6.0836320759       -6.1576393485
  H        -6.0390997038       -6.5934387315       -6.8768176703
  O        -5.3157147411       -6.5042627408       -4.9638375967
  O        -4.7997118332       -5.0931497246       -6.6842330004
  C        -7.4812021438       -7.2683192216       -1.8337008205
  H        -7.8430239833       -7.7214409635       -2.7403108931
  O        -6.3847231004       -6.5596142310       -1.8855223803
  O        -8.0870004405       -7.4369608581       -0.7449951352
  C        -9.2637717352       -3.4248031045       -2.1287629167
  H        -9.5435102925       -4.0726156799       -2.9624854104
  O        -8.1685743898       -2.7562864935       -2.2769679175
  O        -9.8293124780       -3.4993302663       -1.0042472880
  C        -6.7198117275       -1.5155721631       -7.0057360974
  H        -7.7266400310       -1.9701098143       -7.1795729881
  O        -6.3208037730       -1.2812141421       -5.7891801227
  O        -6.0546670581       -1.2647410752       -8.0219575549
  C        -1.9610306020        5.6962737072       -7.4797868569
  H        -1.8068881661        6.7616764611       -7.4798700689
  O        -2.4613788677        5.1953402046       -6.4147373301
  O        -1.7592038190        5.0404242691       -8.5376948407
  C        -1.7153677193        9.0065729983       -3.7807068554
  H        -1.3518565997        9.2891789052       -4.8285272378
  O        -1.7735635219        7.7204009534       -3.5311974415
  O        -1.9589811591        9.8892286280       -2.9296575010
  C         2.5176986766        8.6527359013       -4.1276241396
  H         2.7356319561        9.0838176512       -5.0545617483
  O         2.0941304229        7.4607563111       -4.0382054964
  O         2.6632020791        9.4136986823       -3.1567247192
  C         1.7405814703        5.3615037054       -8.2026998584
  H         1.4592813282        6.4433815072       -8.3446733349
  O         2.2712544771        5.0744229803       -7.0359036782
  O         1.5374971892        4.4786315137       -9.0204193621
  C         9.4791869119        2.6134878200        3.9079418032
  H         9.6264681644        3.4611325178        4.5867541287
  O         8.5294682966        2.7206869475        3.0468687327
  O        10.1884170796        1.5361363159        4.0354546634
  C         6.6320899766        7.0427804887        3.3240585285
  H         7.5183451153        7.1103565644        4.0025867163
  O         6.4921259472        6.1579139584        2.4473334656
  O         5.8014508194        7.8970951585        3.5804466065
  C         4.7468288793        5.8510846562        6.9391041765
  H         5.6837062732        5.7110173508        7.4566454645
  O         4.3315486404        4.9881730889        6.0840680113
  O         4.1390624477        6.9214380767        7.1338855679
  C         7.5642974957        1.7429307679        7.1823006621
  H         8.1116275708        2.6102062210        7.6466333920
  O         6.7423080014        2.0330978891        6.2208765696
  O         7.8434776238        0.5800715711        7.5931108165
     227
 i =        1, time =        1.000, E =        -7.9319777071
 Cd        -8.6193390756        0.4796311409        3.4771773138
 Cd        -5.8715503526       -0.2571987200        7.1143881051
 Cd        -8.4082129700       -2.1541425522        0.3852294314
 Cd        -6.8927227459       -3.2917992952        3.9610989690
 Cd        -3.6901800571       -3.7003933570        7.3823614122
 Cd        -6.4419749136       -6.2357458813        0.4642843467
 Cd        -4.3123504937       -6.8296052389        3.9052278961
 Cd        -6.1163801509        3.8609248254        2.9055764095
 Cd        -3.6066245333        2.8812288087        6.5903847599
 Cd        -6.7534189399        1.1872326809       -0.3192203371
 Cd        -4.0444129780        0.0755169067        3.0501738054
 Cd        -1.7741908488       -0.3125850982        6.8335557481
 Cd        -6.3660879307       -1.4624610524       -3.4401679341
 Cd        -4.3613574342       -3.1217786850       -0.1745530355
 Cd        -2.2426062897       -3.6215825032        3.6336015106
 Cd         0.1786879006       -3.9615930970        7.0369285156
 Cd        -4.2693700138       -5.9881999957       -2.9988617806
 Cd        -2.2487230971       -6.7966040912        0.6791684828
 Cd         0.0677802233       -7.3029965035        3.8542333267
 Cd        -4.0802639284        7.4119319697        2.4182821592
 Cd        -1.6107856662        6.4879450635        6.2509413885
 Cd        -4.3325157457        4.8128096729       -0.6769425102
 Cd        -1.8303883399        3.6695977902        3.1589358287
 Cd         0.4898045826        3.1633520632        6.7205058011
 Cd        -4.5995969246        2.0001021770       -4.0890202613
 Cd        -2.1628892775        1.0181315510       -0.4517478366
 Cd         0.1384249664       -0.0681600829        3.1344023774
 Cd         2.6424453872       -0.6635581459        6.8958742490
 Cd        -4.1540650252       -0.5351477690       -6.9611267993
 Cd        -2.2031759310       -1.8490920085       -3.4900337858
 Cd         0.0358057592       -2.8474742455       -0.0250978197
 Cd         2.4397165031       -3.8215674975        3.5304590908
 Cd         4.5938421241       -4.2151943022        6.5946705530
 Cd        -2.6316957327       -4.5699627048       -6.0785355094
 Cd        -0.3609638462       -6.1210312518       -3.0631288530
 Cd         1.9864150407       -6.8523283852       -0.0374550281
 Cd         4.3578769561       -7.5050112826        3.0973869668
 Cd        -2.4320394493        8.2867357981       -1.2003518140
 Cd         0.1211449978        6.7911450605        2.0747649116
 Cd         2.2580908486        6.3879448977        5.9826060726
 Cd        -2.2740255765        5.5405518348       -4.1121227556
 Cd         0.1544594632        4.6148607553       -0.9823228449
 Cd         2.6165119270        3.7533707151        2.4610509013
 Cd         4.3939162746        2.5015229941        5.6447018166
 Cd        -2.3864577029        3.0936950124       -7.5399026233
 Cd        -0.1312615531        1.7709135513       -4.3474112480
 Cd         2.1531548852        0.8600283457       -0.9631972761
 Cd         4.3034718477       -0.4402593235        2.5248318737
 Cd         6.4920173869       -0.6517794177        6.0104992672
 Cd         0.4042417264       -0.5927820384       -7.0621392768
 Cd         2.1512970397       -1.8411008130       -3.9633260742
 Cd         4.1299674971       -2.9780135841       -0.5482301720
 Cd         6.9198150605       -3.7969682874        2.8855542093
 Cd         1.0695453677       -4.7691713141       -6.7906857124
 Cd         3.6506224734       -5.7625060464       -3.6177015468
 Cd         5.7329408963       -6.5640030376       -0.3327613507
 Cd         2.4550956002        8.1223085809       -1.1566036265
 Cd         4.4053443074        7.2898006541        1.7948190768
 Cd         2.3804032374        5.2451979376       -4.8087056274
 Cd         4.8189591933        4.7184593405       -1.4283832021
 Cd         6.7582272835        3.8401565924        2.0311379492
 Cd         2.6217743747        2.7829030005       -7.7033780856
 Cd         4.8493051211        1.7846784468       -4.5231446641
 Cd         6.7276989283        1.0649930914       -0.9631019258
 Cd         8.8867418642        0.4155697097        2.4348043978
 Cd         4.3617833121       -0.9226392790       -7.7309327624
 Cd         6.7427624025       -1.9756156936       -4.2012627397
 Cd         8.5291336562       -2.6208011964       -0.2527782411
 Se        -9.0548307124        0.2429277995        0.9182959640
 Se        -6.3727744478       -0.6564774155        4.4183188190
 Se        -3.9345147435       -1.3489270681        8.2966025708
 Se        -6.5831260019       -3.7425433909        1.3880675029
 Se        -4.5790845668       -4.2748637606        4.8597562041
 Se        -4.6122435170       -7.7766518262        1.5328231999
 Se        -6.6423199466        3.9855718250        0.4576570149
 Se        -4.0719828258        2.6208455788        3.9143201104
 Se        -1.6333009726        2.0117652286        7.9252024616
 Se        -6.7117546030        0.9829432158       -3.1654522137
 Se        -4.4070888113       -0.2111979911        0.3948828685
 Se        -2.0531258263       -1.1153362476        4.2594049235
 Se         0.4059984121       -1.5661450981        8.0651287688
 Se        -4.4160918804       -3.1300208441       -2.8046929925
 Se        -2.2374276474       -4.0915968034        0.9472104237
 Se         0.1530476058       -4.8127507057        4.4858179330
 Se        -2.4165599097       -7.4206839809       -2.0539412333
 Se        -0.0669296424       -7.8792053033        1.3095425134
 Se        -4.5522049579        7.5948563818       -0.0126414353
 Se        -1.8468062395        6.3633134707        3.5401156686
 Se         0.4037121007        5.8261566744        7.5859649674
 Se        -4.4660952524        4.5539808116       -3.3489575502
 Se        -2.0809876136        3.7152477485        0.3431792636
 Se         0.4982457983        2.6969881754        3.7287064209
 Se         2.7718027198        1.9958782047        7.6262701708
 Se        -4.6132465170        2.0747884146       -6.9049205237
 Se        -2.2789053513        0.8535241317       -3.1261054324
 Se         0.0145675477       -0.1632247881        0.3854041466
 Se         2.3129718151       -1.3189017092        3.9990454219
 Se         4.8631728651       -1.8842963365        7.7354685798
 Se        -2.0701873458       -1.9664248157       -6.4603924714
 Se        -0.0447041500       -3.1599548520       -2.8087908686
 Se         2.2323215014       -4.2314760794        0.7809442391
 Se         4.8362484202       -4.9531219554        4.0967248932
 Se        -0.7551483126       -6.2848973242       -5.8413974317
 Se         1.9250161581       -7.4791016469       -2.6076532806
 Se         4.2593574616       -8.3792581732        0.7363752549
 Se         0.0356296175        7.3686423816       -0.4913548277
 Se         2.3809422805        6.5252170115        3.1425222013
 Se         0.0437352743        4.4288386042       -3.5940211062
 Se         2.5164001279        3.6274369742       -0.0568857153
 Se         4.7727306486        2.4661656968        3.1253196946
 Se         0.0455172268        1.9300133770       -6.9705470866
 Se         2.2758524436        0.7648583464       -3.6570769233
 Se         4.3766759528       -0.2853645697       -0.0178377282
 Se         6.9677306301       -1.1294396407        3.5582200251
 Se         2.2370387566       -2.2682232922       -6.6837843284
 Se         4.3737646753       -3.1974956366       -3.2156797299
 Se         6.4331570365       -4.1116966511        0.4129329865
 Se         4.8516232518        7.5524264018       -0.7459501853
 Se         4.8775092399        4.5490011288       -4.0122779157
 Se         7.0856443306        3.5934969543       -0.6429035037
 Se         4.7817671916        1.5264600446       -7.5555507954
 Se         6.9186210656        0.6112229158       -3.7073738545
 Se         9.1069128445       -0.0626783805       -0.0923647396
  C         6.9966797084       -6.9498474379       -2.8612692086
  H         7.7649322095       -7.1224747738       -3.6684216540
  O         5.8440973942       -6.4672694976       -3.1400900857
  O         7.2887188630       -7.2742275400       -1.6937715727
  C         3.3950624977       -6.2673102565       -6.9491850127
  H         4.3444066225       -6.8936096686       -7.0753272229
  O         3.0188512280       -5.7909342671       -5.7821272164
  O         2.6177695742       -6.1689697170       -7.9240302131
  C         6.3106280886       -2.9078481700       -7.4910638952
  H         7.1299137504       -3.7048862282       -7.4466889051
  O         6.0085350149       -2.3182292767       -6.3475456484
  O         5.9394225224       -2.4742977201       -8.6125048578
  C         8.9774542414       -3.3708792244       -3.4296517155
  H         9.9250180562       -3.8774829974       -3.1826003730
  O         8.5683479328       -3.4149283052       -4.6046404828
  O         8.2717795584       -2.6967221205       -2.5201356641
  C         9.7980802166       -4.6252030884        2.1810003009
  H        10.6408655401       -5.3318691344        2.3887999993
  O         9.7471989996       -4.1805758678        0.9926485789
  O         9.0287517075       -4.5681875556        3.1870703380
  C        -2.8217333518       -8.8884440761        5.3598596932
  H        -2.4154187803       -9.9024293192        5.4343946394
  O        -1.9847767539       -7.9306799010        5.0423660758
  O        -4.0904616044       -8.7274983942        5.4044600582
  C         2.9969234097       -8.6916287989        5.2874256608
  H         2.6967725338       -9.0398269484        6.2934215078
  O         1.9994257152       -8.3579363416        4.5594656698
  O         4.2233501896       -8.6007725835        4.9157874323
  C         2.8793074992       -5.7053265660        8.2324327144
  H         2.3955873073       -6.3773024893        8.9303283437
  O         2.2190835900       -4.8088973497        7.6164086657
  O         4.1498210716       -5.9035588983        8.1536808935
  C        -2.5347147102       -5.9173471438        8.5220140707
  H        -2.0052498086       -6.7390725628        9.0096019785
  O        -1.9213743482       -5.2584286968        7.5983605326
  O        -3.6522420805       -5.5084887929        8.8928351611
  C        -6.8630692568        2.3027049857        7.3892152249
  H        -7.2086193538        3.3071349018        7.3885257928
  O        -5.6213930983        2.1591376960        7.5337634511
  O        -7.6696117571        1.3703162533        7.1999625580
  C        -4.1169944632        6.2828081216        7.2281975693
  H        -5.2418933127        6.2896177269        7.3832000201
  O        -3.5267640773        5.2290843854        6.7738766933
  O        -3.5911352264        7.4673598447        7.3180895647
  C        -6.2567460526        7.1462489378        4.0780904015
  H        -7.2111390447        7.1649409639        4.6689854642
  O        -5.8090761396        6.0479445746        3.6279311617
  O        -5.6128920738        8.2207959399        3.8488340925
  C        -9.2742278526        2.9617611646        4.4604749134
  H        -9.7855372140        3.8838940690        4.7760086716
  O        -8.0588757965        3.0119054818        4.1193120304
  O       -10.0811993604        1.9793634303        4.3922528702
  C        -9.6032849791       -3.5282231927        4.2551701381
  H       -10.5971720209       -3.6001750875        4.7566807035
  O        -9.3833410189       -2.7227936439        3.2942772753
  O        -8.6787981949       -4.3017956983        4.7630708437
  C        -5.4081381529       -6.0792392243       -6.1562002010
  H        -6.0546960796       -6.5859836395       -6.8890942905
  O        -5.3111130523       -6.5041381513       -4.9653249919
  O        -4.7985273503       -5.0927781286       -6.6853491530
  C        -7.4874971983       -7.2705818263       -1.8347926931
  H        -7.8388434959       -7.7173330376       -2.7530342297
  O        -6.3887956140       -6.5550247962       -1.8843673268
  O        -8.0717632877       -7.4409663360       -0.7458816039
  C        -9.2562862011       -3.4269950916       -2.1219784245
  H        -9.5270787848       -4.0663584857       -2.9594189931
  O        -8.1698688170       -2.7554326529       -2.2727099500
  O        -9.8242789802       -3.4940105499       -1.0092550345
  C        -6.7207132335       -1.5101391785       -7.0046064828
  H        -7.7450574417       -1.9674181007       -7.1698505571
  O        -6.3198691080       -1.2781285488       -5.7991228491
  O        -6.0634302374       -1.2635126227       -8.0155882451
  C        -1.9629149393        5.6954918254       -7.4853241295
  H        -1.7770888886        6.7764005651       -7.4923242406
  O        -2.4611974527        5.1867869961       -6.4087901467
  O        -1.7563645242        5.0405650246       -8.5284373177
  C        -1.7169005412        9.0075174437       -3.7839131846
  H        -1.3493405476        9.2660238074       -4.8465614694
  O        -1.7700255216        7.7195954178       -3.5246595874
  O        -1.9637407430        9.8896446622       -2.9409033858
  C         2.5062467189        8.6538949155       -4.1272904615
  H         2.7131102182        9.0638249498       -5.0476060874
  O         2.0944573600        7.4533405829       -4.0307019242
  O         2.6627638120        9.4112195260       -3.1553192459
  C         1.7411676331        5.3672438410       -8.1968741351
  H         1.4358383610        6.4416008070       -8.3632925476
  O         2.2781444944        5.0766689468       -7.0408991499
  O         1.5312114815        4.4834266668       -9.0176392466
  C         9.4768975905        2.6096293324        3.8999955141
  H         9.6131090334        3.4671477718        4.5843902861
  O         8.5280885191        2.7173763793        3.0492518762
  O        10.1886108454        1.5402030536        4.0331725588
  C         6.6326657971        7.0383163454        3.3281982044
  H         7.5082674956        7.1289998248        4.0070788575
  O         6.4945347959        6.1604875470        2.4465937543
  O         5.7955620909        7.9030467560        3.5813733549
  C         4.7447640107        5.8524880792        6.9354097586
  H         5.7085862008        5.7040540943        7.4370666698
  O         4.3286387043        4.9885736768        6.0815460135
  O         4.1458105330        6.9224514890        7.1372613971
  C         7.5603404562        1.7452803987        7.1878960678
  H         8.1158840311        2.6116602203        7.6593692779
  O         6.7459315506        2.0302549071        6.2244832092
  O         7.8435567705        0.5821913713        7.5895850966
     227
 i =        2, time =        2.000, E =        -7.9473018004
 Cd        -8.6169840128        0.4782729601        3.4767970464
 Cd        -5.8708225442       -0.2576698586        7.1136160085
 Cd        -8.4088550239       -2.1552058294        0.3836536902
 Cd        -6.8896674532       -3.2938959726        3.9621599955